    2    2    1    1
  0.2001288E+02  0.3839590E-09  0.3839590E-09  0.3839590E-09  0.5000000E-15
  1.000000000000000E-004
  CAR 
 unknown system                          
      8    300      8
 
  0.0000000E+00  0.0000000E+00  0.0000000E+00  0.3333333E-02
    1       -6.123809   1.000000
    2        5.849623   1.000000
    3        5.849638   1.000000
    4        5.849638   1.000000
    5        8.414154   0.000000
    6        8.414170   0.000000
    7        8.414170   0.000000
    8        9.217142   0.000000
 
  0.1724138E-01  0.0000000E+00  0.1724138E-01  0.3333333E-02
    1       -6.118610   1.000000
    2        5.813799   1.000000
    3        5.826917   1.000000
    4        5.826927   1.000000
    5        8.401157   0.000000
    6        8.443317   0.000000
    7        8.443328   0.000000
    8        9.252245   0.000000
 
  0.3448276E-01  0.0000000E+00  0.3448276E-01  0.3333333E-02
    1       -6.102992   1.000000
    2        5.710727   1.000000
    3        5.761798   1.000000
    4        5.761809   1.000000
    5        8.362887   0.000000
    6        8.527751   0.000000
    7        8.527762   0.000000
    8        9.352412   0.000000
 
  0.5172414E-01  0.0000000E+00  0.5172414E-01  0.3333333E-02
    1       -6.076961   1.000000
    2        5.551433   1.000000
    3        5.661861   1.000000
    4        5.661871   1.000000
    5        8.301485   0.000000
    6        8.659839   0.000000
    7        8.659850   0.000000
    8        9.504318   0.000000
 
  0.6896552E-01  0.0000000E+00  0.6896552E-01  0.3333333E-02
    1       -6.040443   1.000000
    2        5.349653   1.000000
    3        5.536898   1.000000
    4        5.536908   1.000000
    5        8.220186   0.000000
    6        8.831016   0.000000
    7        8.831027   0.000000
    8        9.690702   0.000000
 
  0.8620690E-01  0.0000000E+00  0.8620690E-01  0.3333333E-02
    1       -5.993660   1.000000
    2        5.114950   1.000000
    3        5.393787   1.000000
    4        5.393797   1.000000
    5        8.122399   0.000000
    6        9.031475   0.000000
    7        9.031486   0.000000
    8        9.890471   0.000000
 
  0.1034483E+00  0.0000000E+00  0.1034483E+00  0.3333333E-02
    1       -5.936618   1.000000
    2        4.857507   1.000000
    3        5.238358   1.000000
    4        5.238368   1.000000
    5        8.011430   0.000000
    6        9.254196   0.000000
    7        9.254207   0.000000
    8       10.079610   0.000000
 
  0.1206897E+00  0.0000000E+00  0.1206897E+00  0.3333333E-02
    1       -5.869204   1.000000
    2        4.584580   1.000000
    3        5.079071   1.000000
    4        5.079080   1.000000
    5        7.892187   0.000000
    6        9.495925   0.000000
    7        9.495937   0.000000
    8       10.225621   0.000000
 
  0.1379310E+00  0.0000000E+00  0.1379310E+00  0.3333333E-02
    1       -5.791534   1.000000
    2        4.299710   1.000000
    3        4.917700   1.000000
    4        4.917710   1.000000
    5        7.767297   0.000000
    6        9.750607   0.000000
    7        9.750619   0.000000
    8       10.288665   0.000000
 
  0.1551724E+00  0.0000000E+00  0.1551724E+00  0.3333333E-02
    1       -5.703661   1.000000
    2        4.007159   1.000000
    3        4.757157   1.000000
    4        4.757167   1.000000
    5        7.639624   0.000000
    6       10.017786   0.000000
    7       10.017798   0.000000
    8       10.243730   0.000000
 
  0.1724138E+00  0.0000000E+00  0.1724138E+00  0.3333333E-02
    1       -5.605648   1.000000
    2        3.708715   1.000000
    3        4.599261   1.000000
    4        4.599270   1.000000
    5        7.511613   0.000000
    6       10.100159   0.000000
    7       10.294215   0.000000
    8       10.294226   0.000000
 
  0.1896552E+00  0.0000000E+00  0.1896552E+00  0.3333333E-02
    1       -5.497589   1.000000
    2        3.406024   1.000000
    3        4.445461   1.000000
    4        4.445470   1.000000
    5        7.385328   0.000000
    6        9.890891   0.000000
    7       10.578288   0.000000
    8       10.578302   0.000000
 
  0.2068966E+00  0.0000000E+00  0.2068966E+00  0.3333333E-02
    1       -5.379536   1.000000
    2        3.100189   1.000000
    3        4.296664   1.000000
    4        4.296673   1.000000
    5        7.262561   0.000000
    6        9.647729   0.000000
    7       10.869140   0.000000
    8       10.869151   0.000000
 
  0.2241379E+00  0.0000000E+00  0.2241379E+00  0.3333333E-02
    1       -5.251580   1.000000
    2        2.792318   1.000000
    3        4.154097   1.000000
    4        4.154106   1.000000
    5        7.144633   0.000000
    6        9.387436   0.000000
    7       11.165023   0.000000
    8       11.165034   0.000000
 
  0.2413793E+00  0.0000000E+00  0.2413793E+00  0.3333333E-02
    1       -5.113816   1.000000
    2        2.483032   1.000000
    3        4.018226   1.000000
    4        4.018235   1.000000
    5        7.032838   0.000000
    6        9.123274   0.000000
    7       11.465605   0.000000
    8       11.465604   0.000000
 
  0.2586207E+00  0.0000000E+00  0.2586207E+00  0.3333333E-02
    1       -4.966358   1.000000
    2        2.172950   1.000000
    3        3.889573   1.000000
    4        3.889582   1.000000
    5        6.928205   0.000000
    6        8.862333   0.000000
    7       11.770267   0.000000
    8       11.770274   0.000000
 
  0.2758621E+00  0.0000000E+00  0.2758621E+00  0.3333333E-02
    1       -4.809344   1.000000
    2        1.862614   1.000000
    3        3.768560   1.000000
    4        3.768569   1.000000
    5        6.831617   0.000000
    6        8.609006   0.000000
    7       12.078574   0.000000
    8       12.078704   0.000000
 
  0.2931034E+00  0.0000000E+00  0.2931034E+00  0.3333333E-02
    1       -4.642756   1.000000
    2        1.552559   1.000000
    3        3.655634   1.000000
    4        3.655643   1.000000
    5        6.744477   0.000000
    6        8.366558   0.000000
    7       12.394166   0.000000
    8       12.394176   0.000000
 
  0.3103448E+00  0.0000000E+00  0.3103448E+00  0.3333333E-02
    1       -4.467038   1.000000
    2        1.243111   1.000000
    3        3.549995   1.000000
    4        3.550003   1.000000
    5        6.666133   0.000000
    6        8.135347   0.000000
    7       12.708269   0.000000
    8       12.708283   0.000000
 
  0.3275862E+00  0.0000000E+00  0.3275862E+00  0.3333333E-02
    1       -4.282130   1.000000
    2        0.934939   1.000000
    3        3.453759   1.000000
    4        3.453767   1.000000
    5        6.597826   0.000000
    6        7.918153   0.000000
    7       13.025598   0.000000
    8       13.025632   0.000000
 
  0.3448276E+00  0.0000000E+00  0.3448276E+00  0.3333333E-02
    1       -4.088254   1.000000
    2        0.628442   1.000000
    3        3.366209   1.000000
    4        3.366218   1.000000
    5        6.540072   0.000000
    6        7.715241   0.000000
    7       13.345492   0.000000
    8       13.345502   0.000000
 
  0.3620690E+00  0.0000000E+00  0.3620690E+00  0.3333333E-02
    1       -3.885200   1.000000
    2        0.324106   1.000000
    3        3.287556   1.000000
    4        3.287565   1.000000
    5        6.494492   0.000000
    6        7.527112   0.000000
    7       13.668119   0.000000
    8       13.668224   0.000000
 
  0.3793103E+00  0.0000000E+00  0.3793103E+00  0.3333333E-02
    1       -3.674004   1.000000
    2        0.021624   1.000000
    3        3.217634   1.000000
    4        3.217643   1.000000
    5        6.459121   0.000000
    6        7.352663   0.000000
    7       13.991031   0.000000
    8       13.991037   0.000000
 
  0.3965517E+00  0.0000000E+00  0.3965517E+00  0.3333333E-02
    1       -3.454424   1.000000
    2       -0.276934   1.000000
    3        3.157017   1.000000
    4        3.157025   1.000000
    5        6.435663   0.000000
    6        7.194861   0.000000
    7       14.316645   0.000000
    8       14.316662   0.000000
 
  0.4137931E+00  0.0000000E+00  0.4137931E+00  0.3333333E-02
    1       -3.226732   1.000000
    2       -0.571900   1.000000
    3        3.105580   1.000000
    4        3.105589   1.000000
    5        6.424407   0.000000
    6        7.052274   0.000000
    7       14.642816   0.000000
    8       14.642829   0.000000
 
  0.4310345E+00  0.0000000E+00  0.4310345E+00  0.3333333E-02
    1       -2.991192   1.000000
    2       -0.862787   1.000000
    3        3.063398   1.000000
    4        3.063406   1.000000
    5        6.425702   0.000000
    6        6.924828   0.000000
    7       14.967710   0.000000
    8       14.967715   0.000000
 
  0.4482759E+00  0.0000000E+00  0.4482759E+00  0.3333333E-02
    1       -2.748047   1.000000
    2       -1.149055   1.000000
    3        3.030670   1.000000
    4        3.030679   1.000000
    5        6.440619   0.000000
    6        6.812667   0.000000
    7       15.293782   0.000000
    8       15.293870   0.000000
 
  0.4655172E+00  0.0000000E+00  0.4655172E+00  0.3333333E-02
    1       -2.497697   1.000000
    2       -1.430418   1.000000
    3        3.007151   1.000000
    4        3.007160   1.000000
    5        6.467978   0.000000
    6        6.715047   0.000000
    7       15.596668   0.000000
    8       15.596886   0.000000
 
  0.4827586E+00  0.0000000E+00  0.4827586E+00  0.3333333E-02
    1       -2.240405   1.000000
    2       -1.706356   1.000000
    3        2.993018   1.000000
    4        2.993026   1.000000
    5        6.508848   0.000000
    6        6.632026   0.000000
    7       15.852489   0.000000
    8       15.853819   0.000000
 
  0.5000000E+00  0.0000000E+00  0.5000000E+00  0.3333333E-02
    1       -1.976543   1.000000
    2       -1.976542   1.000000
    3        2.987867   1.000000
    4        2.987876   1.000000
    5        6.562420   0.000000
    6        6.562441   0.000000
    7       15.967952   0.000000
    8       15.968291   0.000000
 
  0.5000000E+00  0.0000000E+00  0.5000000E+00  0.3333333E-02
    1       -1.976543   1.000000
    2       -1.976542   1.000000
    3        2.987867   1.000000
    4        2.987876   1.000000
    5        6.562420   0.000000
    6        6.562441   0.000000
    7       15.967944   0.000000
    8       15.985783   0.000000
 
  0.5000000E+00  0.8620690E-02  0.5086207E+00  0.3333333E-02
    1       -1.976063   1.000000
    2       -1.976062   1.000000
    3        2.984266   1.000000
    4        2.984275   1.000000
    5        6.570566   0.000000
    6        6.570585   0.000000
    7       15.958781   0.000000
    8       15.963600   0.000000
 
  0.5000000E+00  0.1724138E-01  0.5172414E+00  0.3333333E-02
    1       -1.974754   1.000000
    2       -1.974753   1.000000
    3        2.972374   1.000000
    4        2.972382   1.000000
    5        6.592327   0.000000
    6        6.592346   0.000000
    7       15.922588   0.000000
    8       15.925503   0.000000
 
  0.5000000E+00  0.2586207E-01  0.5258621E+00  0.3333333E-02
    1       -1.972583   1.000000
    2       -1.972582   1.000000
    3        2.952951   1.000000
    4        2.952960   1.000000
    5        6.628192   0.000000
    6        6.628211   0.000000
    7       15.859768   0.000000
    8       15.874362   0.000000
 
  0.5000000E+00  0.3448276E-01  0.5344828E+00  0.3333333E-02
    1       -1.969570   1.000000
    2       -1.969569   1.000000
    3        2.926532   1.000000
    4        2.926540   1.000000
    5        6.677639   0.000000
    6        6.677657   0.000000
    7       15.766472   0.000000
    8       15.772187   0.000000
 
  0.5000000E+00  0.4310345E-01  0.5431034E+00  0.3333333E-02
    1       -1.965741   1.000000
    2       -1.965740   1.000000
    3        2.893767   1.000000
    4        2.893775   1.000000
    5        6.740340   0.000000
    6        6.740358   0.000000
    7       15.642940   0.000000
    8       15.643936   0.000000
 
  0.5000000E+00  0.5172414E-01  0.5517241E+00  0.3333333E-02
    1       -1.961250   1.000000
    2       -1.961249   1.000000
    3        2.855182   1.000000
    4        2.855192   1.000000
    5        6.813479   0.000000
    6        6.813503   0.000000
    7       15.488850   0.000000
    8       15.489153   0.000000
 
  0.5000000E+00  0.6034483E-01  0.5603448E+00  0.3333333E-02
    1       -1.955904   1.000000
    2       -1.955903   1.000000
    3        2.812244   1.000000
    4        2.812253   1.000000
    5        6.899313   0.000000
    6        6.899336   0.000000
    7       15.315191   0.000000
    8       15.315510   0.000000
 
  0.5000000E+00  0.6896552E-01  0.5689655E+00  0.3333333E-02
    1       -1.949870   1.000000
    2       -1.949869   1.000000
    3        2.765500   1.000000
    4        2.765509   1.000000
    5        6.995632   0.000000
    6        6.995655   0.000000
    7       15.124650   0.000000
    8       15.124881   0.000000
 
  0.5000000E+00  0.7758621E-01  0.5775862E+00  0.3333333E-02
    1       -1.943203   1.000000
    2       -1.943202   1.000000
    3        2.715801   1.000000
    4        2.715810   1.000000
    5        7.101620   0.000000
    6        7.101643   0.000000
    7       14.922308   0.000000
    8       14.922652   0.000000
 
  0.5000000E+00  0.8620690E-01  0.5862069E+00  0.3333333E-02
    1       -1.935981   1.000000
    2       -1.935979   1.000000
    3        2.663877   1.000000
    4        2.663886   1.000000
    5        7.216231   0.000000
    6        7.216254   0.000000
    7       14.710801   0.000000
    8       14.710895   0.000000
 
  0.5000000E+00  0.9482759E-01  0.5948276E+00  0.3333333E-02
    1       -1.928252   1.000000
    2       -1.928250   1.000000
    3        2.610661   1.000000
    4        2.610669   1.000000
    5        7.339260   0.000000
    6        7.339283   0.000000
    7       14.494242   0.000000
    8       14.494301   0.000000
 
  0.5000000E+00  0.1034483E+00  0.6034483E+00  0.3333333E-02
    1       -1.920106   1.000000
    2       -1.920105   1.000000
    3        2.556777   1.000000
    4        2.556786   1.000000
    5        7.469783   0.000000
    6        7.469806   0.000000
    7       14.273772   0.000000
    8       14.273851   0.000000
 
  0.5000000E+00  0.1120690E+00  0.6120690E+00  0.3333333E-02
    1       -1.911629   1.000000
    2       -1.911627   1.000000
    3        2.502877   1.000000
    4        2.502885   1.000000
    5        7.607190   0.000000
    6        7.607213   0.000000
    7       14.050773   0.000000
    8       14.050826   0.000000
 
  0.5000000E+00  0.1206897E+00  0.6206897E+00  0.3333333E-02
    1       -1.902911   1.000000
    2       -1.902910   1.000000
    3        2.449554   1.000000
    4        2.449562   1.000000
    5        7.750926   0.000000
    6        7.750949   0.000000
    7       13.826172   0.000000
    8       13.826189   0.000000
 
  0.5000000E+00  0.1293103E+00  0.6293103E+00  0.3333333E-02
    1       -1.894053   1.000000
    2       -1.894052   1.000000
    3        2.397348   1.000000
    4        2.397356   1.000000
    5        7.900484   0.000000
    6        7.900508   0.000000
    7       13.600763   0.000000
    8       13.600806   0.000000
 
  0.5000000E+00  0.1379310E+00  0.6379310E+00  0.3333333E-02
    1       -1.885154   1.000000
    2       -1.885152   1.000000
    3        2.346748   1.000000
    4        2.346756   1.000000
    5        8.055402   0.000000
    6        8.055425   0.000000
    7       13.375208   0.000000
    8       13.375259   0.000000
 
  0.5000000E+00  0.1465517E+00  0.6465517E+00  0.3333333E-02
    1       -1.876318   1.000000
    2       -1.876316   1.000000
    3        2.298196   1.000000
    4        2.298204   1.000000
    5        8.215246   0.000000
    6        8.215270   0.000000
    7       13.150010   0.000000
    8       13.150054   0.000000
 
  0.5000000E+00  0.1551724E+00  0.6551724E+00  0.3333333E-02
    1       -1.867653   1.000000
    2       -1.867652   1.000000
    3        2.252094   1.000000
    4        2.252103   1.000000
    5        8.379607   0.000000
    6        8.379631   0.000000
    7       12.925611   0.000000
    8       12.925656   0.000000
 
  0.5000000E+00  0.1637931E+00  0.6637931E+00  0.3333333E-02
    1       -1.859203   1.000000
    2       -1.859201   1.000000
    3        2.208827   1.000000
    4        2.208835   1.000000
    5        8.548098   0.000000
    6        8.548122   0.000000
    7       12.703599   0.000000
    8       12.703635   0.000000
 
  0.5000000E+00  0.1724138E+00  0.6724138E+00  0.3333333E-02
    1       -1.851347   1.000000
    2       -1.851346   1.000000
    3        2.168461   1.000000
    4        2.168469   1.000000
    5        8.719372   0.000000
    6        8.719401   0.000000
    7       12.481352   0.000000
    8       12.481389   0.000000
 
  0.5000000E+00  0.1810345E+00  0.6810345E+00  0.3333333E-02
    1       -1.843855   1.000000
    2       -1.843854   1.000000
    3        2.131753   1.000000
    4        2.131761   1.000000
    5        8.894736   0.000000
    6        8.894766   0.000000
    7       12.261808   0.000000
    8       12.261846   0.000000
 
  0.5000000E+00  0.1896552E+00  0.6896552E+00  0.3333333E-02
    1       -1.837016   1.000000
    2       -1.837014   1.000000
    3        2.098626   1.000000
    4        2.098634   1.000000
    5        9.072391   0.000000
    6        9.072422   0.000000
    7       12.042732   0.000000
    8       12.042768   0.000000
 
  0.5000000E+00  0.1982759E+00  0.6982759E+00  0.3333333E-02
    1       -1.830823   1.000000
    2       -1.830821   1.000000
    3        2.069547   1.000000
    4        2.069556   1.000000
    5        9.252334   0.000000
    6        9.252365   0.000000
    7       11.829122   0.000000
    8       11.829157   0.000000
 
  0.5000000E+00  0.2068966E+00  0.7068966E+00  0.3333333E-02
    1       -1.825416   1.000000
    2       -1.825414   1.000000
    3        2.044595   1.000000
    4        2.044603   1.000000
    5        9.433059   0.000000
    6        9.433091   0.000000
    7       11.619947   0.000000
    8       11.619981   0.000000
 
  0.5000000E+00  0.2155172E+00  0.7155172E+00  0.3333333E-02
    1       -1.820875   1.000000
    2       -1.820873   1.000000
    3        2.023942   1.000000
    4        2.023951   1.000000
    5        9.612649   0.000000
    6        9.612682   0.000000
    7       11.417116   0.000000
    8       11.417148   0.000000
 
  0.5000000E+00  0.2241379E+00  0.7241379E+00  0.3333333E-02
    1       -1.817268   1.000000
    2       -1.817266   1.000000
    3        2.007731   1.000000
    4        2.007739   1.000000
    5        9.787377   0.000000
    6        9.787411   0.000000
    7       11.224340   0.000000
    8       11.224369   0.000000
 
  0.5000000E+00  0.2327586E+00  0.7327586E+00  0.3333333E-02
    1       -1.814444   1.000000
    2       -1.814442   1.000000
    3        1.996256   1.000000
    4        1.996264   1.000000
    5        9.949470   0.000000
    6        9.949504   0.000000
    7       11.050468   0.000000
    8       11.050492   0.000000
 
  0.5000000E+00  0.2413793E+00  0.7413793E+00  0.3333333E-02
    1       -1.812835   1.000000
    2       -1.812833   1.000000
    3        1.989271   1.000000
    4        1.989279   1.000000
    5       10.078584   0.000000
    6       10.078619   0.000000
    7       10.914527   0.000000
    8       10.914548   0.000000
 
  0.5000000E+00  0.2500000E+00  0.7500000E+00  0.3333333E-02
    1       -1.812303   1.000000
    2       -1.812301   1.000000
    3        1.986924   1.000000
    4        1.986932   1.000000
    5       10.132079   0.000000
    6       10.132114   0.000000
    7       10.858451   0.000000
    8       10.858467   0.000000
 
  0.5000000E+00  0.2500000E+00  0.7500000E+00  0.3333333E-02
    1       -1.812303   1.000000
    2       -1.812301   1.000000
    3        1.986924   1.000000
    4        1.986932   1.000000
    5       10.132080   0.000000
    6       10.132114   0.000000
    7       10.858455   0.000000
    8       10.858464   0.000000
 
  0.4956897E+00  0.2543103E+00  0.7500000E+00  0.3333333E-02
    1       -1.851282   1.000000
    2       -1.773774   1.000000
    3        1.957509   1.000000
    4        2.018680   1.000000
    5       10.075261   0.000000
    6       10.157273   0.000000
    7       10.853772   0.000000
    8       10.897449   0.000000
 
  0.4913793E+00  0.2586207E+00  0.7500000E+00  0.3333333E-02
    1       -1.888922   1.000000
    2       -1.737492   1.000000
    3        1.928970   1.000000
    4        2.054194   1.000000
    5        9.974152   0.000000
    6       10.173662   0.000000
    7       10.896642   0.000000
    8       10.947274   0.000000
 
  0.4870690E+00  0.2629310E+00  0.7500000E+00  0.3333333E-02
    1       -1.925233   1.000000
    2       -1.703467   1.000000
    3        1.901322   1.000000
    4        2.093341   1.000000
    5        9.845854   0.000000
    6       10.182386   0.000000
    7       10.968908   0.000000
    8       11.006468   0.000000
 
  0.4827586E+00  0.2672414E+00  0.7500000E+00  0.3333333E-02
    1       -1.960311   1.000000
    2       -1.671735   1.000000
    3        1.874546   1.000000
    4        2.135973   1.000000
    5        9.704291   0.000000
    6       10.184545   0.000000
    7       11.058719   0.000000
    8       11.073695   0.000000
 
  0.4784483E+00  0.2715517E+00  0.7500000E+00  0.3333333E-02
    1       -1.993909   1.000000
    2       -1.642136   1.000000
    3        1.848747   1.000000
    4        2.182195   1.000000
    5        9.556240   0.000000
    6       10.182277   0.000000
    7       11.148131   0.000000
    8       11.158828   0.000000
 
  0.4741379E+00  0.2758621E+00  0.7500000E+00  0.3333333E-02
    1       -2.026417   1.000000
    2       -1.614880   1.000000
    3        1.823538   1.000000
    4        2.231658   1.000000
    5        9.404976   0.000000
    6       10.174774   0.000000
    7       11.227911   0.000000
    8       11.264529   0.000000
 
  0.4698276E+00  0.2801724E+00  0.7500000E+00  0.3333333E-02
    1       -2.057310   1.000000
    2       -1.589532   1.000000
    3        1.799646   1.000000
    4        2.284262   1.000000
    5        9.253162   0.000000
    6       10.166413   0.000000
    7       11.312240   0.000000
    8       11.375814   0.000000
 
  0.4655172E+00  0.2844828E+00  0.7500000E+00  0.3333333E-02
    1       -2.086846   1.000000
    2       -1.566211   1.000000
    3        1.776729   1.000000
    4        2.339739   1.000000
    5        9.101828   0.000000
    6       10.156287   0.000000
    7       11.400188   0.000000
    8       11.490528   0.000000
 
  0.4612069E+00  0.2887931E+00  0.7500000E+00  0.3333333E-02
    1       -2.115023   1.000000
    2       -1.544833   1.000000
    3        1.754799   1.000000
    4        2.397845   1.000000
    5        8.951849   0.000000
    6       10.144997   0.000000
    7       11.491101   0.000000
    8       11.607949   0.000000
 
  0.4568966E+00  0.2931034E+00  0.7500000E+00  0.3333333E-02
    1       -2.141839   1.000000
    2       -1.525308   1.000000
    3        1.733867   1.000000
    4        2.458306   1.000000
    5        8.803870   0.000000
    6       10.133000   0.000000
    7       11.584487   0.000000
    8       11.727613   0.000000
 
  0.4525862E+00  0.2974138E+00  0.7500000E+00  0.3333333E-02
    1       -2.167284   1.000000
    2       -1.507434   1.000000
    3        1.713972   1.000000
    4        2.521035   1.000000
    5        8.659186   0.000000
    6       10.120939   0.000000
    7       11.680352   0.000000
    8       11.849366   0.000000
 
  0.4482759E+00  0.3017241E+00  0.7500000E+00  0.3333333E-02
    1       -2.191372   1.000000
    2       -1.491334   1.000000
    3        1.695072   1.000000
    4        2.585259   1.000000
    5        8.516689   0.000000
    6       10.108483   0.000000
    7       11.777567   0.000000
    8       11.972635   0.000000
 
  0.4439655E+00  0.3060345E+00  0.7500000E+00  0.3333333E-02
    1       -2.214092   1.000000
    2       -1.476795   1.000000
    3        1.677202   1.000000
    4        2.650819   1.000000
    5        8.377590   0.000000
    6       10.096148   0.000000
    7       11.876256   0.000000
    8       12.097422   0.000000
 
  0.4396552E+00  0.3103448E+00  0.7500000E+00  0.3333333E-02
    1       -2.235431   1.000000
    2       -1.463640   1.000000
    3        1.660381   1.000000
    4        2.717825   1.000000
    5        8.242880   0.000000
    6       10.084547   0.000000
    7       11.977142   0.000000
    8       12.225837   0.000000
 
  0.4353448E+00  0.3146552E+00  0.7500000E+00  0.3333333E-02
    1       -2.255413   1.000000
    2       -1.451927   1.000000
    3        1.644599   1.000000
    4        2.784788   1.000000
    5        8.111864   0.000000
    6       10.072900   0.000000
    7       12.078115   0.000000
    8       12.353271   0.000000
 
  0.4310345E+00  0.3189655E+00  0.7500000E+00  0.3333333E-02
    1       -2.274041   1.000000
    2       -1.441488   1.000000
    3        1.629679   1.000000
    4        2.851702   1.000000
    5        7.984799   0.000000
    6       10.061661   0.000000
    7       12.179178   0.000000
    8       12.481352   0.000000
 
  0.4267241E+00  0.3232759E+00  0.7500000E+00  0.3333333E-02
    1       -2.291277   1.000000
    2       -1.432211   1.000000
    3        1.616019   1.000000
    4        2.918077   1.000000
    5        7.863744   0.000000
    6       10.051122   0.000000
    7       12.281646   0.000000
    8       12.610954   0.000000
 
  0.4224138E+00  0.3275862E+00  0.7500000E+00  0.3333333E-02
    1       -2.307140   1.000000
    2       -1.424018   1.000000
    3        1.603429   1.000000
    4        2.983296   1.000000
    5        7.748456   0.000000
    6       10.041249   0.000000
    7       12.384589   0.000000
    8       12.741576   0.000000
 
  0.4181034E+00  0.3318966E+00  0.7500000E+00  0.3333333E-02
    1       -2.321554   1.000000
    2       -1.416815   1.000000
    3        1.592029   1.000000
    4        3.046743   1.000000
    5        7.639529   0.000000
    6       10.032377   0.000000
    7       12.489118   0.000000
    8       12.873979   0.000000
 
  0.4137931E+00  0.3362069E+00  0.7500000E+00  0.3333333E-02
    1       -2.334663   1.000000
    2       -1.410546   1.000000
    3        1.581598   1.000000
    4        3.107664   1.000000
    5        7.537610   0.000000
    6       10.023990   0.000000
    7       12.592151   0.000000
    8       13.006243   0.000000
 
  0.4094828E+00  0.3405172E+00  0.7500000E+00  0.3333333E-02
    1       -2.346443   1.000000
    2       -1.405216   1.000000
    3        1.572231   1.000000
    4        3.165311   1.000000
    5        7.443374   0.000000
    6       10.016397   0.000000
    7       12.693841   0.000000
    8       13.137973   0.000000
 
  0.4051724E+00  0.3448276E+00  0.7500000E+00  0.3333333E-02
    1       -2.356796   1.000000
    2       -1.400590   1.000000
    3        1.563977   1.000000
    4        3.218947   1.000000
    5        7.357615   0.000000
    6       10.009644   0.000000
    7       12.795945   0.000000
    8       13.271331   0.000000
 
  0.4008621E+00  0.3491379E+00  0.7500000E+00  0.3333333E-02
    1       -2.365770   1.000000
    2       -1.396604   1.000000
    3        1.556815   1.000000
    4        3.267971   1.000000
    5        7.282186   0.000000
    6       10.003747   0.000000
    7       12.896703   0.000000
    8       13.405086   0.000000
 
  0.3965517E+00  0.3534483E+00  0.7500000E+00  0.3333333E-02
    1       -2.373364   1.000000
    2       -1.393398   1.000000
    3        1.550750   1.000000
    4        3.311046   1.000000
    5        7.215687   0.000000
    6        9.998727   0.000000
    7       12.995149   0.000000
    8       13.538779   0.000000
 
  0.3922414E+00  0.3577586E+00  0.7500000E+00  0.3333333E-02
    1       -2.379578   1.000000
    2       -1.390833   1.000000
    3        1.545784   1.000000
    4        3.347631   1.000000
    5        7.159980   0.000000
    6        9.994601   0.000000
    7       13.089819   0.000000
    8       13.673390   0.000000
 
  0.3879310E+00  0.3620690E+00  0.7500000E+00  0.3333333E-02
    1       -2.384412   1.000000
    2       -1.388873   1.000000
    3        1.541920   1.000000
    4        3.376984   1.000000
    5        7.115785   0.000000
    6        9.991382   0.000000
    7       13.177551   0.000000
    8       13.802909   0.000000
 
  0.3836207E+00  0.3663793E+00  0.7500000E+00  0.3333333E-02
    1       -2.387865   1.000000
    2       -1.387493   1.000000
    3        1.539158   1.000000
    4        3.398458   1.000000
    5        7.083723   0.000000
    6        9.989078   0.000000
    7       13.253709   0.000000
    8       13.932506   0.000000
 
  0.3793103E+00  0.3706897E+00  0.7500000E+00  0.3333333E-02
    1       -2.389937   1.000000
    2       -1.386674   1.000000
    3        1.537500   1.000000
    4        3.411557   1.000000
    5        7.064278   0.000000
    6        9.987697   0.000000
    7       13.308003   0.000000
    8       13.922005   0.000000
 
  0.3750000E+00  0.3750000E+00  0.7500000E+00  0.3333333E-02
    1       -2.390627   1.000000
    2       -1.386393   1.000000
    3        1.536950   1.000000
    4        3.416071   1.000000
    5        7.057770   0.000000
    6        9.987774   0.000000
    7       13.329096   0.000000
    8       13.893170   0.000000
 
  0.3750000E+00  0.3750000E+00  0.7500000E+00  0.3333333E-02
    1       -2.390627   1.000000
    2       -1.386393   1.000000
    3        1.536950   1.000000
    4        3.416071   1.000000
    5        7.057770   0.000000
    6        9.987774   0.000000
    7       13.329090   0.000000
    8       13.891965   0.000000
 