 vasp.5.4.1 24Jun15 (build Mar 03 2017 14:24:33) complex                        
  
 executed on           IFC91_ompi date 2017.05.16  14:20:57
 running on   16 total cores
 distrk:  each k-point on   16 cores,    1 groups
 distr:  one band on NCORES_PER_BAND=   4 cores,    4 groups


--------------------------------------------------------------------------------------------------------


 INCAR:
 POTCAR:    PAW_PBE Si 05Jan2001                  
 POTCAR:    PAW_PBE Si 05Jan2001                  
   VRHFIN =Si: s2p2                                                             
   LEXCH  = PE                                                                  
   EATOM  =   103.0669 eV,    7.5752 Ry                                         
                                                                                
   TITEL  = PAW_PBE Si 05Jan2001                                                
   LULTRA =        F    use ultrasoft PP ?                                      
   IUNSCR =        1    unscreen: 0-lin 1-nonlin 2-no                           
   RPACOR =    1.500    partial core radius                                     
   POMASS =   28.085; ZVAL   =    4.000    mass and valenz                      
   RCORE  =    1.900    outmost cutoff radius                                   
   RWIGS  =    2.480; RWIGS  =    1.312    wigner-seitz radius (au A)           
   ENMAX  =  245.345; ENMIN  =  184.009 eV                                      
   ICORE  =        2    local potential                                         
   LCOR   =        T    correct aug charges                                     
   LPAW   =        T    paw PP                                                  
   EAUG   =  322.069                                                            
   DEXC   =    0.000                                                            
   RMAX   =    1.950    core radius for proj-oper                               
   RAUG   =    1.300    factor for augmentation sphere                          
   RDEP   =    1.993    radius for radial grids                                 
   RDEPT  =    1.837    core radius for aug-charge                              
                                                                                
   Atomic configuration                                                         
    6 entries                                                                   
     n  l   j            E        occ.                                          
     1  0  0.50     -1785.8828   2.0000                                         
     2  0  0.50      -139.4969   2.0000                                         
     2  1  1.50       -95.5546   6.0000                                         
     3  0  0.50       -10.8127   2.0000                                         
     3  1  0.50        -4.0811   2.0000                                         
     3  2  1.50        -4.0817   0.0000                                         
   Description                                                                  
     l       E           TYP  RCUT    TYP  RCUT                                 
     0    -10.8127223     23  1.900                                             
     0     -7.6451159     23  1.900                                             
     1     -4.0811372     23  1.900                                             
     1      2.4879257     23  1.900                                             
     2     -4.0817478      7  1.900                                             
  local pseudopotential read in
  partial core-charges read in
  partial kinetic energy density read in
  atomic valenz-charges read in
  non local Contribution for L=           0  read in
    real space projection operators read in
  non local Contribution for L=           0  read in
    real space projection operators read in
  non local Contribution for L=           1  read in
    real space projection operators read in
  non local Contribution for L=           1  read in
    real space projection operators read in
    PAW grid and wavefunctions read in
 
   number of l-projection  operators is LMAX  =           4
   number of lm-projection operators is LMMAX =           8
 
  PAW_PBE Si 05Jan2001                  :
 energy of atom  1       EATOM= -103.0669
 kinetic energy error for atom=    0.0052 (will be added to EATOM!!)
 
 
 POSCAR: diamond lattice  [FCC,FCC,cF8]          
  positions in direct lattice
  No initial velocities read in
 exchange correlation table for  LEXCH =        8
   RHO(1)=    0.500       N(1)  =     2000
   RHO(2)=  100.500       N(2)  =     4000
 


--------------------------------------------------------------------------------------------------------


 ion  position               nearest neighbor table
   1  0.125  0.125  0.625-   2 2.35   2 2.35   2 2.35   2 2.35
   2  0.875  0.875  0.375-   1 2.35   1 2.35   1 2.35   1 2.35
 
  LATTYP: Found a face centered cubic cell.
 ALAT       =     5.4300005702
  
  Lattice vectors:
  
 A1 = (   0.0000000000,   2.7150002851,   2.7150002851)
 A2 = (   2.7150002851,   0.0000000000,   2.7150002851)
 A3 = (   2.7150002851,   2.7150002851,   0.0000000000)


Analysis of symmetry for initial positions (statically):
=====================================================================
 Subroutine PRICEL returns:
 Original cell was already a primitive cell.
 

 Routine SETGRP: Setting up the symmetry group for a 
 face centered cubic supercell.


 Subroutine GETGRP returns: Found 48 space group operations
 (whereof 12 operations were pure point group operations)
 out of a pool of 48 trial point group operations.


The static configuration has the point symmetry D_3d.
 The point group associated with its full space group is O_h .


Analysis of symmetry for dynamics (positions and initial velocities):
=====================================================================
 Subroutine PRICEL returns:
 Original cell was already a primitive cell.
 

 Routine SETGRP: Setting up the symmetry group for a 
 face centered cubic supercell.


 Subroutine GETGRP returns: Found 48 space group operations
 (whereof 12 operations were pure point group operations)
 out of a pool of 48 trial point group operations.


The dynamic configuration has the point symmetry D_3d.
 The point group associated with its full space group is O_h .


 Subroutine INISYM returns: Found 48 space group operations
 (whereof 12 operations are pure point group operations),
 and found     1 'primitive' translations

 
 
 KPOINTS: FCC (face-centered cubic) G-X-W-K-G-L-U-
  interpolating k-points between supplied coordinates
  k-points in reciprocal lattice
Space group operators:
 irot       det(A)        alpha          n_x          n_y          n_z        tau_x        tau_y        tau_z
    1     1.000000     0.000001     1.000000     0.000000     0.000000     0.000000     0.000000     0.000000
    2    -1.000000     0.000001     1.000000     0.000000     0.000000     0.000000     0.000000     0.000000
    3     1.000000   180.000000     0.000000     0.707107     0.707107     0.000000     0.000000     0.000000
    4    -1.000000   180.000000     0.000000     0.707107     0.707107     0.000000     0.000000     0.000000
    5     1.000000   180.000000     0.707107     0.000000     0.707107     0.000000     0.000000     0.000000
    6    -1.000000   180.000000     0.707107     0.000000     0.707107     0.000000     0.000000     0.000000
    7     1.000000   120.000000    -0.577350    -0.577350     0.577350     0.000000     0.000000     0.000000
    8    -1.000000   120.000000    -0.577350    -0.577350     0.577350     0.000000     0.000000     0.000000
    9     1.000000   120.000000     0.577350     0.577350    -0.577350     0.000000     0.000000     0.000000
   10    -1.000000   120.000000     0.577350     0.577350    -0.577350     0.000000     0.000000     0.000000
   11     1.000000   180.000000     0.707107    -0.707107     0.000000     0.000000     0.000000     0.000000
   12    -1.000000   180.000000     0.707107    -0.707107     0.000000     0.000000     0.000000     0.000000
   13     1.000000   120.000000    -0.577350    -0.577350    -0.577350     0.500000     0.000000     0.500000
   14    -1.000000   120.000000    -0.577350    -0.577350    -0.577350     0.500000     0.000000     0.500000
   15     1.000000   120.000000     0.577350     0.577350     0.577350     0.000000     0.500000     0.500000
   16    -1.000000   120.000000     0.577350     0.577350     0.577350     0.000000     0.500000     0.500000
   17     1.000000    90.000000     0.000000     0.000000    -1.000000     0.000000     0.500000     0.500000
   18    -1.000000    90.000000     0.000000     0.000000    -1.000000     0.000000     0.500000     0.500000
   19     1.000000    90.000000     0.000000     1.000000     0.000000     0.000000     0.000000     0.500000
   20    -1.000000    90.000000     0.000000     1.000000     0.000000     0.000000     0.000000     0.500000
   21     1.000000   180.000000     0.000000     0.000000     1.000000     0.000000     0.000000     0.500000
   22    -1.000000   180.000000     0.000000     0.000000     1.000000     0.000000     0.000000     0.500000
   23     1.000000   120.000000    -0.577350     0.577350     0.577350     0.000000     0.500000     0.500000
   24    -1.000000   120.000000    -0.577350     0.577350     0.577350     0.000000     0.500000     0.500000
   25     1.000000   120.000000    -0.577350     0.577350    -0.577350     0.500000     0.000000     0.500000
   26    -1.000000   120.000000    -0.577350     0.577350    -0.577350     0.500000     0.000000     0.500000
   27     1.000000    90.000000     0.000000     0.000000     1.000000     0.500000     0.000000     0.500000
   28    -1.000000    90.000000     0.000000     0.000000     1.000000     0.500000     0.000000     0.500000
   29     1.000000    90.000000    -1.000000     0.000000     0.000000     0.000000     0.000000     0.500000
   30    -1.000000    90.000000    -1.000000     0.000000     0.000000     0.000000     0.000000     0.500000
   31     1.000000   120.000000     0.577350    -0.577350     0.577350     0.000000     0.000000     0.500000
   32    -1.000000   120.000000     0.577350    -0.577350     0.577350     0.000000     0.000000     0.500000
   33     1.000000   180.000000     1.000000     0.000000     0.000000     0.000000     0.500000     0.500000
   34    -1.000000   180.000000     1.000000     0.000000     0.000000     0.000000     0.500000     0.500000
   35     1.000000    90.000000     0.000000    -1.000000     0.000000     0.000000     0.500000     0.500000
   36    -1.000000    90.000000     0.000000    -1.000000     0.000000     0.000000     0.500000     0.500000
   37     1.000000   180.000000     0.707107     0.707107     0.000000     0.000000     0.000000     0.500000
   38    -1.000000   180.000000     0.707107     0.707107     0.000000     0.000000     0.000000     0.500000
   39     1.000000    90.000000     1.000000     0.000000     0.000000     0.500000     0.000000     0.500000
   40    -1.000000    90.000000     1.000000     0.000000     0.000000     0.500000     0.000000     0.500000
   41     1.000000   120.000000     0.577350    -0.577350    -0.577350     0.000000     0.000000     0.500000
   42    -1.000000   120.000000     0.577350    -0.577350    -0.577350     0.000000     0.000000     0.500000
   43     1.000000   180.000000     0.000000     1.000000     0.000000     0.500000     0.000000     0.500000
   44    -1.000000   180.000000     0.000000     1.000000     0.000000     0.500000     0.000000     0.500000
   45     1.000000   180.000000     0.000000    -0.707107     0.707107     0.000000     0.500000     0.500000
   46    -1.000000   180.000000     0.000000    -0.707107     0.707107     0.000000     0.500000     0.500000
   47     1.000000   180.000000     0.707107     0.000000    -0.707107     0.500000     0.000000     0.500000
   48    -1.000000   180.000000     0.707107     0.000000    -0.707107     0.500000     0.000000     0.500000


--------------------------------------------------------------------------------------------------------




 Dimension of arrays:
   k-points           NKPTS =    300   k-points in BZ     NKDIM =    300   number of bands    NBANDS=      8
   number of dos      NEDOS =    301   number of ions     NIONS =      2
   non local maximal  LDIM  =      4   non local SUM 2l+1 LMDIM =      8
   total plane-waves  NPLWV =   4096
   max r-space proj   IRMAX =      1   max aug-charges    IRDMAX=   3621
   dimension x,y,z NGX =    16 NGY =   16 NGZ =   16
   dimension x,y,z NGXF=    32 NGYF=   32 NGZF=   32
   support grid    NGXF=    32 NGYF=   32 NGZF=   32
   ions per type =               2
 NGX,Y,Z   is equivalent  to a cutoff of   6.93,  6.93,  6.93 a.u.
 NGXF,Y,Z  is equivalent  to a cutoff of  13.86, 13.86, 13.86 a.u.


 I would recommend the setting:
   dimension x,y,z NGX =    15 NGY =   15 NGZ =   15
 SYSTEM =  unknown system                          
 POSCAR =  diamond lattice  [FCC,FCC,cF8]          

 Startparameter for this run:
   NWRITE =      2    write-flag & timer
   PREC   = normal    normal or accurate (medium, high low for compatibility)
   ISTART =      0    job   : 0-new  1-cont  2-samecut
   ICHARG =     11    charge: 1-file 2-atom 10-const
   ISPIN  =      1    spin polarized calculation?
   LNONCOLLINEAR =      F non collinear calculations
   LSORBIT =      F    spin-orbit coupling
   INIWAV =      1    electr: 0-lowe 1-rand  2-diag
   LASPH  =      F    aspherical Exc in radial PAW
   METAGGA=      F    non-selfconsistent MetaGGA calc.

 Electronic Relaxation 1
   ENCUT  =  250.0 eV  18.37 Ry    4.29 a.u.   4.95  4.95  4.95*2*pi/ulx,y,z
   ENINI  =  250.0     initial cutoff
   ENAUG  =  322.1 eV  augmentation charge cutoff
   NELM   =     60;   NELMIN=  2; NELMDL= -5     # of ELM steps 
   EDIFF  = 0.1E-05   stopping-criterion for ELM
   LREAL  =      F    real-space projection
   NLSPLINE    = F    spline interpolate recip. space projectors
   LCOMPAT=      F    compatible to vasp.4.4
   GGA_COMPAT  = T    GGA compatible to vasp.4.4-vasp.4.6
   LMAXPAW     = -100 max onsite density
   LMAXMIX     =    2 max onsite mixed and CHGCAR
   VOSKOWN=      0    Vosko Wilk Nusair interpolation
   ROPT   =    0.00000
 Ionic relaxation
   EDIFFG = 0.1E-04   stopping-criterion for IOM
   NSW    =      0    number of steps for IOM
   NBLOCK =      1;   KBLOCK =      1    inner block; outer block 
   IBRION =     -1    ionic relax: 0-MD 1-quasi-New 2-CG
   NFREE  =      0    steps in history (QN), initial steepest desc. (CG)
   ISIF   =      2    stress and relaxation
   IWAVPR =     10    prediction:  0-non 1-charg 2-wave 3-comb
   ISYM   =      2    0-nonsym 1-usesym 2-fastsym
   LCORR  =      T    Harris-Foulkes like correction to forces

   POTIM  = 0.5000    time-step for ionic-motion
   TEIN   =    0.0    initial temperature
   TEBEG  =    0.0;   TEEND  =   0.0 temperature during run
   SMASS  =  -3.00    Nose mass-parameter (am)
   estimated Nose-frequenzy (Omega)   =  0.10E-29 period in steps =****** mass=  -0.337E-27a.u.
   SCALEE = 1.0000    scale energy and forces
   NPACO  =    256;   APACO  = 16.0  distance and # of slots for P.C.
   PSTRESS=    0.0 pullay stress

  Mass of Ions in am
   POMASS =  28.09
  Ionic Valenz
   ZVAL   =   4.00
  Atomic Wigner-Seitz radii
   RWIGS  =  -1.00
  virtual crystal weights 
   VCA    =   1.00
   NELECT =       8.0000    total number of electrons
   NUPDOWN=      -1.0000    fix difference up-down

 DOS related values:
   EMIN   =  10.00;   EMAX   =-10.00  energy-range for DOS
   EFERMI =   0.00
   ISMEAR =     0;   SIGMA  =   0.05  broadening in eV -4-tet -1-fermi 0-gaus

 Electronic relaxation 2 (details)
   IALGO  =     68    algorithm
   LDIAG  =      T    sub-space diagonalisation (order eigenvalues)
   LSUBROT=      F    optimize rotation matrix (better conditioning)
   TURBO    =      0    0=normal 1=particle mesh
   IRESTART =      0    0=no restart 2=restart with 2 vectors
   NREBOOT  =      0    no. of reboots
   NMIN     =      0    reboot dimension
   EREF     =   0.00    reference energy to select bands
   IMIX   =      4    mixing-type and parameters
     AMIX     =   0.40;   BMIX     =  1.00
     AMIX_MAG =   1.60;   BMIX_MAG =  1.00
     AMIN     =   0.10
     WC   =   100.;   INIMIX=   1;  MIXPRE=   1;  MAXMIX= -45

 Intra band minimization:
   WEIMIN = 0.0000     energy-eigenvalue tresh-hold
   EBREAK =  0.31E-07  absolut break condition
   DEPER  =   0.30     relativ break condition  

   TIME   =   0.40     timestep for ELM

  volume/ion in A,a.u.               =      20.01       135.05
  Fermi-wavevector in a.u.,A,eV,Ry     =   0.957176  1.808800 12.465455  0.916185
  Thomas-Fermi vector in A             =   2.086170
 
 Write flags
   LWAVE  =      T    write WAVECAR
   LCHARG =      T    write CHGCAR
   LVTOT  =      F    write LOCPOT, total local potential
   LVHAR  =      F    write LOCPOT, Hartree potential only
   LELF   =      F    write electronic localiz. function (ELF)
   LORBIT =      0    0 simple, 1 ext, 2 COOP (PROOUT)


 Dipole corrections
   LMONO  =      F    monopole corrections only (constant potential shift)
   LDIPOL =      F    correct potential (dipole corrections)
   IDIPOL =      0    1-x, 2-y, 3-z, 4-all directions 
   EPSILON=  1.0000000 bulk dielectric constant

 Exchange correlation treatment:
   GGA     =    --    GGA type
   LEXCH   =     8    internal setting for exchange type
   VOSKOWN=      0    Vosko Wilk Nusair interpolation
   LHFCALC =     F    Hartree Fock is set to
   LHFONE  =     F    Hartree Fock one center treatment
   AEXX    =    0.0000 exact exchange contribution

 Linear response parameters
   LEPSILON=     F    determine dielectric tensor
   LRPA    =     F    only Hartree local field effects (RPA)
   LNABLA  =     F    use nabla operator in PAW spheres
   LVEL    =     F    velocity operator in full k-point grid
   LINTERFAST=   F  fast interpolation
   KINTER  =     0    interpolate to denser k-point grid
   CSHIFT  =0.1000    complex shift for real part using Kramers Kronig
   OMEGAMAX=  -1.0    maximum frequency
   DEG_THRESHOLD= 0.2000000E-02 threshold for treating states as degnerate
   RTIME   =    0.100 relaxation time in fs

 Orbital magnetization related:
   ORBITALMAG=     F  switch on orbital magnetization
   LCHIMAG   =     F  perturbation theory with respect to B field
   DQ        =  0.001000  dq finite difference perturbation B field



--------------------------------------------------------------------------------------------------------


 Static calculation
 charge density and potential remain constant during run
 non-spin polarized calculation
 RMM-DIIS sequential band-by-band and
  variant of blocked Davidson during initial phase
 perform sub-space diagonalisation
    before iterative eigenvector-optimisation
 no mixing
 using additional bands            4
 reciprocal scheme for non local part
 use partial core corrections
 calculate Harris-corrections to forces 
   (improved forces if not selfconsistent)
 use gradient corrections 
 WARNING: stress and forces are not correct
  (second derivative of E(xc) not defined)
 use of overlap-Matrix (Vanderbilt PP)
 Gauss-broadening in eV      SIGMA  =   0.05


--------------------------------------------------------------------------------------------------------


  energy-cutoff  :      250.00
  volume of cell :       40.03
      direct lattice vectors                 reciprocal lattice vectors
     0.000000000  2.715000285  2.715000285    -0.184162043  0.184162043  0.184162043
     2.715000285  0.000000000  2.715000285     0.184162043 -0.184162043  0.184162043
     2.715000285  2.715000285  0.000000000     0.184162043  0.184162043 -0.184162043

  length of vectors
     3.839590225  3.839590225  3.839590225     0.318978016  0.318978016  0.318978016


 
 k-points in units of 2pi/SCALE and weight: FCC (face-centered cubic) G-X-W-K-G-L-U-
   0.00000000  0.00000000  0.00000000       0.003
   0.00000000  0.00777764  0.00000000       0.003
   0.00000000  0.01555528  0.00000000       0.003
   0.00000000  0.02333292  0.00000000       0.003
   0.00000000  0.03111056  0.00000000       0.003
   0.00000000  0.03888820  0.00000000       0.003
   0.00000000  0.04666584  0.00000000       0.003
   0.00000000  0.05444348  0.00000000       0.003
   0.00000000  0.06222111  0.00000000       0.003
   0.00000000  0.06999875  0.00000000       0.003
   0.00000000  0.07777639  0.00000000       0.003
   0.00000000  0.08555403  0.00000000       0.003
   0.00000000  0.09333167  0.00000000       0.003
   0.00000000  0.10110931  0.00000000       0.003
   0.00000000  0.10888695  0.00000000       0.003
   0.00000000  0.11666459  0.00000000       0.003
   0.00000000  0.12444223  0.00000000       0.003
   0.00000000  0.13221987  0.00000000       0.003
   0.00000000  0.13999751  0.00000000       0.003
   0.00000000  0.14777515  0.00000000       0.003
   0.00000000  0.15555279  0.00000000       0.003
   0.00000000  0.16333043  0.00000000       0.003
   0.00000000  0.17110807  0.00000000       0.003
   0.00000000  0.17888571  0.00000000       0.003
   0.00000000  0.18666334  0.00000000       0.003
   0.00000000  0.19444098  0.00000000       0.003
   0.00000000  0.20221862  0.00000000       0.003
   0.00000000  0.20999626  0.00000000       0.003
   0.00000000  0.21777390  0.00000000       0.003
   0.00000000  0.22555154  0.00000000       0.003
   0.00000000  0.22555154  0.00000000       0.003
   0.00388882  0.22555154  0.00000000       0.003
   0.00777764  0.22555154 -0.00000000       0.003
   0.01166646  0.22555154  0.00000000       0.003
   0.01555528  0.22555154  0.00000000       0.003
   0.01944410  0.22555154 -0.00000000       0.003
   0.02333292  0.22555154  0.00000000       0.003
   0.02722174  0.22555154  0.00000000       0.003
   0.03111056  0.22555154 -0.00000000       0.003
   0.03499938  0.22555154  0.00000000       0.003
   0.03888820  0.22555154 -0.00000000       0.003
   0.04277702  0.22555154 -0.00000000       0.003
   0.04666584  0.22555154  0.00000000       0.003
   0.05055466  0.22555154  0.00000000       0.003
   0.05444348  0.22555154 -0.00000000       0.003
   0.05833230  0.22555154  0.00000000       0.003
   0.06222111  0.22555154 -0.00000000       0.003
   0.06610993  0.22555154 -0.00000000       0.003
   0.06999875  0.22555154  0.00000000       0.003
   0.07388757  0.22555154  0.00000000       0.003
   0.07777639  0.22555154  0.00000000       0.003
   0.08166521  0.22555154  0.00000000       0.003
   0.08555403  0.22555154 -0.00000000       0.003
   0.08944285  0.22555154  0.00000000       0.003
   0.09333167  0.22555154  0.00000000       0.003
   0.09722049  0.22555154  0.00000000       0.003
   0.10110931  0.22555154  0.00000000       0.003
   0.10499813  0.22555154  0.00000000       0.003
   0.10888695  0.22555154 -0.00000000       0.003
   0.11277577  0.22555154  0.00000000       0.003
   0.11277577  0.22555154  0.00000000       0.003
   0.11472018  0.22360713  0.00000000       0.003
   0.11666459  0.22166272  0.00000000       0.003
   0.11860900  0.21971831  0.00000000       0.003
   0.12055341  0.21777390  0.00000000       0.003
   0.12249782  0.21582949  0.00000000       0.003
   0.12444223  0.21388508  0.00000000       0.003
   0.12638664  0.21194067  0.00000000       0.003
   0.12833105  0.20999626  0.00000000       0.003
   0.13027546  0.20805185  0.00000000       0.003
   0.13221987  0.20610744 -0.00000000       0.003
   0.13416428  0.20416303  0.00000000       0.003
   0.13610869  0.20221862  0.00000000       0.003
   0.13805310  0.20027421  0.00000000       0.003
   0.13999751  0.19832980  0.00000000       0.003
   0.14194192  0.19638539  0.00000000       0.003
   0.14388633  0.19444098 -0.00000000       0.003
   0.14583074  0.19249657  0.00000000       0.003
   0.14777515  0.19055216  0.00000000       0.003
   0.14971956  0.18860775  0.00000000       0.003
   0.15166397  0.18666334  0.00000000       0.003
   0.15360838  0.18471894  0.00000000       0.003
   0.15555279  0.18277453  0.00000000       0.003
   0.15749720  0.18083012  0.00000000       0.003
   0.15944161  0.17888571  0.00000000       0.003
   0.16138602  0.17694130  0.00000000       0.003
   0.16333043  0.17499689  0.00000000       0.003
   0.16527484  0.17305248  0.00000000       0.003
   0.16721925  0.17110807  0.00000000       0.003
   0.16916366  0.16916366  0.00000000       0.003
   0.16916366  0.16916366  0.00000000       0.003
   0.16333043  0.16333043  0.00000000       0.003
   0.15749720  0.15749720  0.00000000       0.003
   0.15166397  0.15166397  0.00000000       0.003
   0.14583074  0.14583074  0.00000000       0.003
   0.13999751  0.13999751  0.00000000       0.003
   0.13416428  0.13416428  0.00000000       0.003
   0.12833105  0.12833105  0.00000000       0.003
   0.12249782  0.12249782  0.00000000       0.003
   0.11666459  0.11666459  0.00000000       0.003
   0.11083136  0.11083136  0.00000000       0.003
   0.10499813  0.10499813  0.00000000       0.003
   0.09916490  0.09916490  0.00000000       0.003
   0.09333167  0.09333167  0.00000000       0.003
   0.08749844  0.08749844  0.00000000       0.003
   0.08166521  0.08166521  0.00000000       0.003
   0.07583198  0.07583198  0.00000000       0.003
   0.06999875  0.06999875  0.00000000       0.003
   0.06416552  0.06416552  0.00000000       0.003
   0.05833230  0.05833230  0.00000000       0.003
   0.05249907  0.05249907  0.00000000       0.003
   0.04666584  0.04666584  0.00000000       0.003
   0.04083261  0.04083261  0.00000000       0.003
   0.03499938  0.03499938  0.00000000       0.003
   0.02916615  0.02916615  0.00000000       0.003
   0.02333292  0.02333292  0.00000000       0.003
   0.01749969  0.01749969  0.00000000       0.003
   0.01166646  0.01166646  0.00000000       0.003
   0.00583323  0.00583323  0.00000000       0.003
   0.00000000  0.00000000  0.00000000       0.003
   0.00000000  0.00000000  0.00000000       0.003
   0.00388882  0.00388882  0.00388882       0.003
   0.00777764  0.00777764  0.00777764       0.003
   0.01166646  0.01166646  0.01166646       0.003
   0.01555528  0.01555528  0.01555528       0.003
   0.01944410  0.01944410  0.01944410       0.003
   0.02333292  0.02333292  0.02333292       0.003
   0.02722174  0.02722174  0.02722174       0.003
   0.03111056  0.03111056  0.03111056       0.003
   0.03499938  0.03499938  0.03499938       0.003
   0.03888820  0.03888820  0.03888820       0.003
   0.04277702  0.04277702  0.04277702       0.003
   0.04666584  0.04666584  0.04666584       0.003
   0.05055466  0.05055466  0.05055466       0.003
   0.05444348  0.05444348  0.05444348       0.003
   0.05833230  0.05833230  0.05833230       0.003
   0.06222111  0.06222111  0.06222111       0.003
   0.06610993  0.06610993  0.06610993       0.003
   0.06999875  0.06999875  0.06999875       0.003
   0.07388757  0.07388757  0.07388757       0.003
   0.07777639  0.07777639  0.07777639       0.003
   0.08166521  0.08166521  0.08166521       0.003
   0.08555403  0.08555403  0.08555403       0.003
   0.08944285  0.08944285  0.08944285       0.003
   0.09333167  0.09333167  0.09333167       0.003
   0.09722049  0.09722049  0.09722049       0.003
   0.10110931  0.10110931  0.10110931       0.003
   0.10499813  0.10499813  0.10499813       0.003
   0.10888695  0.10888695  0.10888695       0.003
   0.11277577  0.11277577  0.11277577       0.003
   0.11277577  0.11277577  0.11277577       0.003
   0.11083136  0.11666459  0.11083136       0.003
   0.10888695  0.12055341  0.10888695       0.003
   0.10694254  0.12444223  0.10694254       0.003
   0.10499813  0.12833105  0.10499813       0.003
   0.10305372  0.13221987  0.10305372       0.003
   0.10110931  0.13610869  0.10110931       0.003
   0.09916490  0.13999751  0.09916490       0.003
   0.09722049  0.14388633  0.09722049       0.003
   0.09527608  0.14777515  0.09527608       0.003
   0.09333167  0.15166397  0.09333167       0.003
   0.09138726  0.15555279  0.09138726       0.003
   0.08944285  0.15944161  0.08944285       0.003
   0.08749844  0.16333043  0.08749844       0.003
   0.08555403  0.16721925  0.08555403       0.003
   0.08360962  0.17110807  0.08360962       0.003
   0.08166521  0.17499689  0.08166521       0.003
   0.07972080  0.17888571  0.07972080       0.003
   0.07777639  0.18277453  0.07777639       0.003
   0.07583198  0.18666334  0.07583198       0.003
   0.07388757  0.19055216  0.07388757       0.003
   0.07194316  0.19444098  0.07194316       0.003
   0.06999875  0.19832980  0.06999875       0.003
   0.06805434  0.20221862  0.06805434       0.003
   0.06610993  0.20610744  0.06610993       0.003
   0.06416552  0.20999626  0.06416552       0.003
   0.06222111  0.21388508  0.06222111       0.003
   0.06027671  0.21777390  0.06027671       0.003
   0.05833230  0.22166272  0.05833230       0.003
   0.05638789  0.22555154  0.05638789       0.003
   0.05638789  0.22555154  0.05638789       0.003
   0.05833230  0.22555154  0.05444348       0.003
   0.06027671  0.22555154  0.05249907       0.003
   0.06222111  0.22555154  0.05055466       0.003
   0.06416552  0.22555154  0.04861025       0.003
   0.06610993  0.22555154  0.04666584       0.003
   0.06805434  0.22555154  0.04472143       0.003
   0.06999875  0.22555154  0.04277702       0.003
   0.07194316  0.22555154  0.04083261       0.003
   0.07388757  0.22555154  0.03888820       0.003
   0.07583198  0.22555154  0.03694379       0.003
   0.07777639  0.22555154  0.03499938       0.003
   0.07972080  0.22555154  0.03305497       0.003
   0.08166521  0.22555154  0.03111056       0.003
   0.08360962  0.22555154  0.02916615       0.003
   0.08555403  0.22555154  0.02722174       0.003
   0.08749844  0.22555154  0.02527733       0.003
   0.08944285  0.22555154  0.02333292       0.003
   0.09138726  0.22555154  0.02138851       0.003
   0.09333167  0.22555154  0.01944410       0.003
   0.09527608  0.22555154  0.01749969       0.003
   0.09722049  0.22555154  0.01555528       0.003
   0.09916490  0.22555154  0.01361087       0.003
   0.10110931  0.22555154  0.01166646       0.003
   0.10305372  0.22555154  0.00972205       0.003
   0.10499813  0.22555154  0.00777764       0.003
   0.10694254  0.22555154  0.00583323       0.003
   0.10888695  0.22555154  0.00388882       0.003
   0.11083136  0.22555154  0.00194441       0.003
   0.11277577  0.22555154  0.00000000       0.003
   0.11277577  0.22555154  0.00000000       0.003
   0.11277577  0.22166272  0.00388882       0.003
   0.11277577  0.21777390  0.00777764       0.003
   0.11277577  0.21388508  0.01166646       0.003
   0.11277577  0.20999626  0.01555528       0.003
   0.11277577  0.20610744  0.01944410       0.003
   0.11277577  0.20221862  0.02333292       0.003
   0.11277577  0.19832980  0.02722174       0.003
   0.11277577  0.19444098  0.03111056       0.003
   0.11277577  0.19055216  0.03499938       0.003
   0.11277577  0.18666334  0.03888820       0.003
   0.11277577  0.18277453  0.04277702       0.003
   0.11277577  0.17888571  0.04666584       0.003
   0.11277577  0.17499689  0.05055466       0.003
   0.11277577  0.17110807  0.05444348       0.003
   0.11277577  0.16721925  0.05833230       0.003
   0.11277577  0.16333043  0.06222111       0.003
   0.11277577  0.15944161  0.06610993       0.003
   0.11277577  0.15555279  0.06999875       0.003
   0.11277577  0.15166397  0.07388757       0.003
   0.11277577  0.14777515  0.07777639       0.003
   0.11277577  0.14388633  0.08166521       0.003
   0.11277577  0.13999751  0.08555403       0.003
   0.11277577  0.13610869  0.08944285       0.003
   0.11277577  0.13221987  0.09333167       0.003
   0.11277577  0.12833105  0.09722049       0.003
   0.11277577  0.12444223  0.10110931       0.003
   0.11277577  0.12055341  0.10499813       0.003
   0.11277577  0.11666459  0.10888695       0.003
   0.11277577  0.11277577  0.11277577       0.003
   0.11277577  0.11277577  0.11277577       0.003
   0.11472018  0.11472018  0.10888695       0.003
   0.11666459  0.11666459  0.10499813       0.003
   0.11860900  0.11860900  0.10110931       0.003
   0.12055341  0.12055341  0.09722049       0.003
   0.12249782  0.12249782  0.09333167       0.003
   0.12444223  0.12444223  0.08944285       0.003
   0.12638664  0.12638664  0.08555403       0.003
   0.12833105  0.12833105  0.08166521       0.003
   0.13027546  0.13027546  0.07777639       0.003
   0.13221987  0.13221987  0.07388757       0.003
   0.13416428  0.13416428  0.06999875       0.003
   0.13610869  0.13610869  0.06610993       0.003
   0.13805310  0.13805310  0.06222111       0.003
   0.13999751  0.13999751  0.05833230       0.003
   0.14194192  0.14194192  0.05444348       0.003
   0.14388633  0.14388633  0.05055466       0.003
   0.14583074  0.14583074  0.04666584       0.003
   0.14777515  0.14777515  0.04277702       0.003
   0.14971956  0.14971956  0.03888820       0.003
   0.15166397  0.15166397  0.03499938       0.003
   0.15360838  0.15360838  0.03111056       0.003
   0.15555279  0.15555279  0.02722174       0.003
   0.15749720  0.15749720  0.02333292       0.003
   0.15944161  0.15944161  0.01944410       0.003
   0.16138602  0.16138602  0.01555528       0.003
   0.16333043  0.16333043  0.01166646       0.003
   0.16527484  0.16527484  0.00777764       0.003
   0.16721925  0.16721925  0.00388882       0.003
   0.16916366  0.16916366  0.00000000       0.003
   0.05638789  0.22555154  0.05638789       0.003
   0.05444348  0.22555154  0.05444348       0.003
   0.05249907  0.22555154  0.05249907       0.003
   0.05055466  0.22555154  0.05055466       0.003
   0.04861025  0.22555154  0.04861025       0.003
   0.04666584  0.22555154  0.04666584       0.003
   0.04472143  0.22555154  0.04472143       0.003
   0.04277702  0.22555154  0.04277702       0.003
   0.04083261  0.22555154  0.04083261       0.003
   0.03888820  0.22555154  0.03888820       0.003
   0.03694379  0.22555154  0.03694379       0.003
   0.03499938  0.22555154  0.03499938       0.003
   0.03305497  0.22555154  0.03305497       0.003
   0.03111056  0.22555154  0.03111056       0.003
   0.02916615  0.22555154  0.02916615       0.003
   0.02722174  0.22555154  0.02722174       0.003
   0.02527733  0.22555154  0.02527733       0.003
   0.02333292  0.22555154  0.02333292       0.003
   0.02138851  0.22555154  0.02138851       0.003
   0.01944410  0.22555154  0.01944410       0.003
   0.01749969  0.22555154  0.01749969       0.003
   0.01555528  0.22555154  0.01555528       0.003
   0.01361087  0.22555154  0.01361087       0.003
   0.01166646  0.22555154  0.01166646       0.003
   0.00972205  0.22555154  0.00972205       0.003
   0.00777764  0.22555154  0.00777764       0.003
   0.00583323  0.22555154  0.00583323       0.003
   0.00388882  0.22555154  0.00388882       0.003
   0.00194441  0.22555154  0.00194441       0.003
   0.00000000  0.22555154  0.00000000       0.003
 
 k-points in reciprocal lattice and weights: FCC (face-centered cubic) G-X-W-K-G-L-U-
   0.00000000  0.00000000  0.00000000       0.003
   0.01724138  0.00000000  0.01724138       0.003
   0.03448276  0.00000000  0.03448276       0.003
   0.05172414  0.00000000  0.05172414       0.003
   0.06896552  0.00000000  0.06896552       0.003
   0.08620690  0.00000000  0.08620690       0.003
   0.10344828  0.00000000  0.10344828       0.003
   0.12068966  0.00000000  0.12068966       0.003
   0.13793103  0.00000000  0.13793103       0.003
   0.15517241  0.00000000  0.15517241       0.003
   0.17241379  0.00000000  0.17241379       0.003
   0.18965517  0.00000000  0.18965517       0.003
   0.20689655  0.00000000  0.20689655       0.003
   0.22413793  0.00000000  0.22413793       0.003
   0.24137931  0.00000000  0.24137931       0.003
   0.25862069  0.00000000  0.25862069       0.003
   0.27586207  0.00000000  0.27586207       0.003
   0.29310345  0.00000000  0.29310345       0.003
   0.31034483  0.00000000  0.31034483       0.003
   0.32758621  0.00000000  0.32758621       0.003
   0.34482759  0.00000000  0.34482759       0.003
   0.36206897  0.00000000  0.36206897       0.003
   0.37931034  0.00000000  0.37931034       0.003
   0.39655172  0.00000000  0.39655172       0.003
   0.41379310  0.00000000  0.41379310       0.003
   0.43103448  0.00000000  0.43103448       0.003
   0.44827586  0.00000000  0.44827586       0.003
   0.46551724  0.00000000  0.46551724       0.003
   0.48275862  0.00000000  0.48275862       0.003
   0.50000000  0.00000000  0.50000000       0.003
   0.50000000  0.00000000  0.50000000       0.003
   0.50000000  0.00862069  0.50862069       0.003
   0.50000000  0.01724138  0.51724138       0.003
   0.50000000  0.02586207  0.52586207       0.003
   0.50000000  0.03448276  0.53448276       0.003
   0.50000000  0.04310345  0.54310345       0.003
   0.50000000  0.05172414  0.55172414       0.003
   0.50000000  0.06034483  0.56034483       0.003
   0.50000000  0.06896552  0.56896552       0.003
   0.50000000  0.07758621  0.57758621       0.003
   0.50000000  0.08620690  0.58620690       0.003
   0.50000000  0.09482759  0.59482759       0.003
   0.50000000  0.10344828  0.60344828       0.003
   0.50000000  0.11206897  0.61206897       0.003
   0.50000000  0.12068966  0.62068966       0.003
   0.50000000  0.12931034  0.62931034       0.003
   0.50000000  0.13793103  0.63793103       0.003
   0.50000000  0.14655172  0.64655172       0.003
   0.50000000  0.15517241  0.65517241       0.003
   0.50000000  0.16379310  0.66379310       0.003
   0.50000000  0.17241379  0.67241379       0.003
   0.50000000  0.18103448  0.68103448       0.003
   0.50000000  0.18965517  0.68965517       0.003
   0.50000000  0.19827586  0.69827586       0.003
   0.50000000  0.20689655  0.70689655       0.003
   0.50000000  0.21551724  0.71551724       0.003
   0.50000000  0.22413793  0.72413793       0.003
   0.50000000  0.23275862  0.73275862       0.003
   0.50000000  0.24137931  0.74137931       0.003
   0.50000000  0.25000000  0.75000000       0.003
   0.50000000  0.25000000  0.75000000       0.003
   0.49568966  0.25431034  0.75000000       0.003
   0.49137931  0.25862069  0.75000000       0.003
   0.48706897  0.26293103  0.75000000       0.003
   0.48275862  0.26724138  0.75000000       0.003
   0.47844828  0.27155172  0.75000000       0.003
   0.47413793  0.27586207  0.75000000       0.003
   0.46982759  0.28017241  0.75000000       0.003
   0.46551724  0.28448276  0.75000000       0.003
   0.46120690  0.28879310  0.75000000       0.003
   0.45689655  0.29310345  0.75000000       0.003
   0.45258621  0.29741379  0.75000000       0.003
   0.44827586  0.30172414  0.75000000       0.003
   0.44396552  0.30603448  0.75000000       0.003
   0.43965517  0.31034483  0.75000000       0.003
   0.43534483  0.31465517  0.75000000       0.003
   0.43103448  0.31896552  0.75000000       0.003
   0.42672414  0.32327586  0.75000000       0.003
   0.42241379  0.32758621  0.75000000       0.003
   0.41810345  0.33189655  0.75000000       0.003
   0.41379310  0.33620690  0.75000000       0.003
   0.40948276  0.34051724  0.75000000       0.003
   0.40517241  0.34482759  0.75000000       0.003
   0.40086207  0.34913793  0.75000000       0.003
   0.39655172  0.35344828  0.75000000       0.003
   0.39224138  0.35775862  0.75000000       0.003
   0.38793103  0.36206897  0.75000000       0.003
   0.38362069  0.36637931  0.75000000       0.003
   0.37931034  0.37068966  0.75000000       0.003
   0.37500000  0.37500000  0.75000000       0.003
   0.37500000  0.37500000  0.75000000       0.003
   0.36206897  0.36206897  0.72413793       0.003
   0.34913793  0.34913793  0.69827586       0.003
   0.33620690  0.33620690  0.67241379       0.003
   0.32327586  0.32327586  0.64655172       0.003
   0.31034483  0.31034483  0.62068966       0.003
   0.29741379  0.29741379  0.59482759       0.003
   0.28448276  0.28448276  0.56896552       0.003
   0.27155172  0.27155172  0.54310345       0.003
   0.25862069  0.25862069  0.51724138       0.003
   0.24568966  0.24568966  0.49137931       0.003
   0.23275862  0.23275862  0.46551724       0.003
   0.21982759  0.21982759  0.43965517       0.003
   0.20689655  0.20689655  0.41379310       0.003
   0.19396552  0.19396552  0.38793103       0.003
   0.18103448  0.18103448  0.36206897       0.003
   0.16810345  0.16810345  0.33620690       0.003
   0.15517241  0.15517241  0.31034483       0.003
   0.14224138  0.14224138  0.28448276       0.003
   0.12931034  0.12931034  0.25862069       0.003
   0.11637931  0.11637931  0.23275862       0.003
   0.10344828  0.10344828  0.20689655       0.003
   0.09051724  0.09051724  0.18103448       0.003
   0.07758621  0.07758621  0.15517241       0.003
   0.06465517  0.06465517  0.12931034       0.003
   0.05172414  0.05172414  0.10344828       0.003
   0.03879310  0.03879310  0.07758621       0.003
   0.02586207  0.02586207  0.05172414       0.003
   0.01293103  0.01293103  0.02586207       0.003
   0.00000000  0.00000000  0.00000000       0.003
   0.00000000  0.00000000  0.00000000       0.003
   0.01724138  0.01724138  0.01724138       0.003
   0.03448276  0.03448276  0.03448276       0.003
   0.05172414  0.05172414  0.05172414       0.003
   0.06896552  0.06896552  0.06896552       0.003
   0.08620690  0.08620690  0.08620690       0.003
   0.10344828  0.10344828  0.10344828       0.003
   0.12068966  0.12068966  0.12068966       0.003
   0.13793103  0.13793103  0.13793103       0.003
   0.15517241  0.15517241  0.15517241       0.003
   0.17241379  0.17241379  0.17241379       0.003
   0.18965517  0.18965517  0.18965517       0.003
   0.20689655  0.20689655  0.20689655       0.003
   0.22413793  0.22413793  0.22413793       0.003
   0.24137931  0.24137931  0.24137931       0.003
   0.25862069  0.25862069  0.25862069       0.003
   0.27586207  0.27586207  0.27586207       0.003
   0.29310345  0.29310345  0.29310345       0.003
   0.31034483  0.31034483  0.31034483       0.003
   0.32758621  0.32758621  0.32758621       0.003
   0.34482759  0.34482759  0.34482759       0.003
   0.36206897  0.36206897  0.36206897       0.003
   0.37931034  0.37931034  0.37931034       0.003
   0.39655172  0.39655172  0.39655172       0.003
   0.41379310  0.41379310  0.41379310       0.003
   0.43103448  0.43103448  0.43103448       0.003
   0.44827586  0.44827586  0.44827586       0.003
   0.46551724  0.46551724  0.46551724       0.003
   0.48275862  0.48275862  0.48275862       0.003
   0.50000000  0.50000000  0.50000000       0.003
   0.50000000  0.50000000  0.50000000       0.003
   0.50431034  0.49137931  0.50431034       0.003
   0.50862069  0.48275862  0.50862069       0.003
   0.51293103  0.47413793  0.51293103       0.003
   0.51724138  0.46551724  0.51724138       0.003
   0.52155172  0.45689655  0.52155172       0.003
   0.52586207  0.44827586  0.52586207       0.003
   0.53017241  0.43965517  0.53017241       0.003
   0.53448276  0.43103448  0.53448276       0.003
   0.53879310  0.42241379  0.53879310       0.003
   0.54310345  0.41379310  0.54310345       0.003
   0.54741379  0.40517241  0.54741379       0.003
   0.55172414  0.39655172  0.55172414       0.003
   0.55603448  0.38793103  0.55603448       0.003
   0.56034483  0.37931034  0.56034483       0.003
   0.56465517  0.37068966  0.56465517       0.003
   0.56896552  0.36206897  0.56896552       0.003
   0.57327586  0.35344828  0.57327586       0.003
   0.57758621  0.34482759  0.57758621       0.003
   0.58189655  0.33620690  0.58189655       0.003
   0.58620690  0.32758621  0.58620690       0.003
   0.59051724  0.31896552  0.59051724       0.003
   0.59482759  0.31034483  0.59482759       0.003
   0.59913793  0.30172414  0.59913793       0.003
   0.60344828  0.29310345  0.60344828       0.003
   0.60775862  0.28448276  0.60775862       0.003
   0.61206897  0.27586207  0.61206897       0.003
   0.61637931  0.26724138  0.61637931       0.003
   0.62068966  0.25862069  0.62068966       0.003
   0.62500000  0.25000000  0.62500000       0.003
   0.62500000  0.25000000  0.62500000       0.003
   0.62068966  0.25000000  0.62931034       0.003
   0.61637931  0.25000000  0.63362069       0.003
   0.61206897  0.25000000  0.63793103       0.003
   0.60775862  0.25000000  0.64224138       0.003
   0.60344828  0.25000000  0.64655172       0.003
   0.59913793  0.25000000  0.65086207       0.003
   0.59482759  0.25000000  0.65517241       0.003
   0.59051724  0.25000000  0.65948276       0.003
   0.58620690  0.25000000  0.66379310       0.003
   0.58189655  0.25000000  0.66810345       0.003
   0.57758621  0.25000000  0.67241379       0.003
   0.57327586  0.25000000  0.67672414       0.003
   0.56896552  0.25000000  0.68103448       0.003
   0.56465517  0.25000000  0.68534483       0.003
   0.56034483  0.25000000  0.68965517       0.003
   0.55603448  0.25000000  0.69396552       0.003
   0.55172414  0.25000000  0.69827586       0.003
   0.54741379  0.25000000  0.70258621       0.003
   0.54310345  0.25000000  0.70689655       0.003
   0.53879310  0.25000000  0.71120690       0.003
   0.53448276  0.25000000  0.71551724       0.003
   0.53017241  0.25000000  0.71982759       0.003
   0.52586207  0.25000000  0.72413793       0.003
   0.52155172  0.25000000  0.72844828       0.003
   0.51724138  0.25000000  0.73275862       0.003
   0.51293103  0.25000000  0.73706897       0.003
   0.50862069  0.25000000  0.74137931       0.003
   0.50431034  0.25000000  0.74568966       0.003
   0.50000000  0.25000000  0.75000000       0.003
   0.50000000  0.25000000  0.75000000       0.003
   0.50000000  0.25862069  0.74137931       0.003
   0.50000000  0.26724138  0.73275862       0.003
   0.50000000  0.27586207  0.72413793       0.003
   0.50000000  0.28448276  0.71551724       0.003
   0.50000000  0.29310345  0.70689655       0.003
   0.50000000  0.30172414  0.69827586       0.003
   0.50000000  0.31034483  0.68965517       0.003
   0.50000000  0.31896552  0.68103448       0.003
   0.50000000  0.32758621  0.67241379       0.003
   0.50000000  0.33620690  0.66379310       0.003
   0.50000000  0.34482759  0.65517241       0.003
   0.50000000  0.35344828  0.64655172       0.003
   0.50000000  0.36206897  0.63793103       0.003
   0.50000000  0.37068966  0.62931034       0.003
   0.50000000  0.37931034  0.62068966       0.003
   0.50000000  0.38793103  0.61206897       0.003
   0.50000000  0.39655172  0.60344828       0.003
   0.50000000  0.40517241  0.59482759       0.003
   0.50000000  0.41379310  0.58620690       0.003
   0.50000000  0.42241379  0.57758621       0.003
   0.50000000  0.43103448  0.56896552       0.003
   0.50000000  0.43965517  0.56034483       0.003
   0.50000000  0.44827586  0.55172414       0.003
   0.50000000  0.45689655  0.54310345       0.003
   0.50000000  0.46551724  0.53448276       0.003
   0.50000000  0.47413793  0.52586207       0.003
   0.50000000  0.48275862  0.51724138       0.003
   0.50000000  0.49137931  0.50862069       0.003
   0.50000000  0.50000000  0.50000000       0.003
   0.50000000  0.50000000  0.50000000       0.003
   0.49568966  0.49568966  0.50862069       0.003
   0.49137931  0.49137931  0.51724138       0.003
   0.48706897  0.48706897  0.52586207       0.003
   0.48275862  0.48275862  0.53448276       0.003
   0.47844828  0.47844828  0.54310345       0.003
   0.47413793  0.47413793  0.55172414       0.003
   0.46982759  0.46982759  0.56034483       0.003
   0.46551724  0.46551724  0.56896552       0.003
   0.46120690  0.46120690  0.57758621       0.003
   0.45689655  0.45689655  0.58620690       0.003
   0.45258621  0.45258621  0.59482759       0.003
   0.44827586  0.44827586  0.60344828       0.003
   0.44396552  0.44396552  0.61206897       0.003
   0.43965517  0.43965517  0.62068966       0.003
   0.43534483  0.43534483  0.62931034       0.003
   0.43103448  0.43103448  0.63793103       0.003
   0.42672414  0.42672414  0.64655172       0.003
   0.42241379  0.42241379  0.65517241       0.003
   0.41810345  0.41810345  0.66379310       0.003
   0.41379310  0.41379310  0.67241379       0.003
   0.40948276  0.40948276  0.68103448       0.003
   0.40517241  0.40517241  0.68965517       0.003
   0.40086207  0.40086207  0.69827586       0.003
   0.39655172  0.39655172  0.70689655       0.003
   0.39224138  0.39224138  0.71551724       0.003
   0.38793103  0.38793103  0.72413793       0.003
   0.38362069  0.38362069  0.73275862       0.003
   0.37931034  0.37931034  0.74137931       0.003
   0.37500000  0.37500000  0.75000000       0.003
   0.62500000  0.25000000  0.62500000       0.003
   0.62068966  0.24137931  0.62068966       0.003
   0.61637931  0.23275862  0.61637931       0.003
   0.61206897  0.22413793  0.61206897       0.003
   0.60775862  0.21551724  0.60775862       0.003
   0.60344828  0.20689655  0.60344828       0.003
   0.59913793  0.19827586  0.59913793       0.003
   0.59482759  0.18965517  0.59482759       0.003
   0.59051724  0.18103448  0.59051724       0.003
   0.58620690  0.17241379  0.58620690       0.003
   0.58189655  0.16379310  0.58189655       0.003
   0.57758621  0.15517241  0.57758621       0.003
   0.57327586  0.14655172  0.57327586       0.003
   0.56896552  0.13793103  0.56896552       0.003
   0.56465517  0.12931034  0.56465517       0.003
   0.56034483  0.12068966  0.56034483       0.003
   0.55603448  0.11206897  0.55603448       0.003
   0.55172414  0.10344828  0.55172414       0.003
   0.54741379  0.09482759  0.54741379       0.003
   0.54310345  0.08620690  0.54310345       0.003
   0.53879310  0.07758621  0.53879310       0.003
   0.53448276  0.06896552  0.53448276       0.003
   0.53017241  0.06034483  0.53017241       0.003
   0.52586207  0.05172414  0.52586207       0.003
   0.52155172  0.04310345  0.52155172       0.003
   0.51724138  0.03448276  0.51724138       0.003
   0.51293103  0.02586207  0.51293103       0.003
   0.50862069  0.01724138  0.50862069       0.003
   0.50431034  0.00862069  0.50431034       0.003
   0.50000000  0.00000000  0.50000000       0.003
 
 position of ions in fractional coordinates (direct lattice) 
   0.12500000  0.12500000  0.62500000
   0.87500000  0.87500000  0.37500000
 
 position of ions in cartesian coordinates  (Angst):
   2.03625021  2.03625021  0.67875007
   3.39375036  3.39375036  4.75125050
 


--------------------------------------------------------------------------------------------------------


 k-point  1 :   0.0000 0.0000 0.0000  plane waves:     339
 k-point  2 :   0.0172 0.0000 0.0172  plane waves:     339
 k-point  3 :   0.0345 0.0000 0.0345  plane waves:     339
 k-point  4 :   0.0517 0.0000 0.0517  plane waves:     339
 k-point  5 :   0.0690 0.0000 0.0690  plane waves:     335
 k-point  6 :   0.0862 0.0000 0.0862  plane waves:     339
 k-point  7 :   0.1034 0.0000 0.1034  plane waves:     347
 k-point  8 :   0.1207 0.0000 0.1207  plane waves:     347
 k-point  9 :   0.1379 0.0000 0.1379  plane waves:     351
 k-point 10 :   0.1552 0.0000 0.1552  plane waves:     351
 k-point 11 :   0.1724 0.0000 0.1724  plane waves:     351
 k-point 12 :   0.1897 0.0000 0.1897  plane waves:     351
 k-point 13 :   0.2069 0.0000 0.2069  plane waves:     351
 k-point 14 :   0.2241 0.0000 0.2241  plane waves:     351
 k-point 15 :   0.2414 0.0000 0.2414  plane waves:     351
 k-point 16 :   0.2586 0.0000 0.2586  plane waves:     351
 k-point 17 :   0.2759 0.0000 0.2759  plane waves:     351
 k-point 18 :   0.2931 0.0000 0.2931  plane waves:     347
 k-point 19 :   0.3103 0.0000 0.3103  plane waves:     355
 k-point 20 :   0.3276 0.0000 0.3276  plane waves:     355
 k-point 21 :   0.3448 0.0000 0.3448  plane waves:     355
 k-point 22 :   0.3621 0.0000 0.3621  plane waves:     351
 k-point 23 :   0.3793 0.0000 0.3793  plane waves:     359
 k-point 24 :   0.3966 0.0000 0.3966  plane waves:     359
 k-point 25 :   0.4138 0.0000 0.4138  plane waves:     359
 k-point 26 :   0.4310 0.0000 0.4310  plane waves:     359
 k-point 27 :   0.4483 0.0000 0.4483  plane waves:     351
 k-point 28 :   0.4655 0.0000 0.4655  plane waves:     351
 k-point 29 :   0.4828 0.0000 0.4828  plane waves:     351
 k-point 30 :   0.5000 0.0000 0.5000  plane waves:     360
 k-point 31 :   0.5000 0.0000 0.5000  plane waves:     360
 k-point 32 :   0.5000 0.0086 0.5086  plane waves:     352
 k-point 33 :   0.5000 0.0172 0.5172  plane waves:     352
 k-point 34 :   0.5000 0.0259 0.5259  plane waves:     352
 k-point 35 :   0.5000 0.0345 0.5345  plane waves:     352
 k-point 36 :   0.5000 0.0431 0.5431  plane waves:     352
 k-point 37 :   0.5000 0.0517 0.5517  plane waves:     358
 k-point 38 :   0.5000 0.0603 0.5603  plane waves:     358
 k-point 39 :   0.5000 0.0690 0.5690  plane waves:     358
 k-point 40 :   0.5000 0.0776 0.5776  plane waves:     358
 k-point 41 :   0.5000 0.0862 0.5862  plane waves:     362
 k-point 42 :   0.5000 0.0948 0.5948  plane waves:     362
 k-point 43 :   0.5000 0.1034 0.6034  plane waves:     362
 k-point 44 :   0.5000 0.1121 0.6121  plane waves:     362
 k-point 45 :   0.5000 0.1207 0.6207  plane waves:     362
 k-point 46 :   0.5000 0.1293 0.6293  plane waves:     362
 k-point 47 :   0.5000 0.1379 0.6379  plane waves:     362
 k-point 48 :   0.5000 0.1466 0.6466  plane waves:     362
 k-point 49 :   0.5000 0.1552 0.6552  plane waves:     362
 k-point 50 :   0.5000 0.1638 0.6638  plane waves:     360
 k-point 51 :   0.5000 0.1724 0.6724  plane waves:     364
 k-point 52 :   0.5000 0.1810 0.6810  plane waves:     364
 k-point 53 :   0.5000 0.1897 0.6897  plane waves:     368
 k-point 54 :   0.5000 0.1983 0.6983  plane waves:     368
 k-point 55 :   0.5000 0.2069 0.7069  plane waves:     368
 k-point 56 :   0.5000 0.2155 0.7155  plane waves:     368
 k-point 57 :   0.5000 0.2241 0.7241  plane waves:     368
 k-point 58 :   0.5000 0.2328 0.7328  plane waves:     364
 k-point 59 :   0.5000 0.2414 0.7414  plane waves:     360
 k-point 60 :   0.5000 0.2500 0.7500  plane waves:     360
 k-point 61 :   0.5000 0.2500 0.7500  plane waves:     360
 k-point 62 :   0.4957 0.2543 0.7500  plane waves:     360
 k-point 63 :   0.4914 0.2586 0.7500  plane waves:     360
 k-point 64 :   0.4871 0.2629 0.7500  plane waves:     363
 k-point 65 :   0.4828 0.2672 0.7500  plane waves:     365
 k-point 66 :   0.4784 0.2716 0.7500  plane waves:     365
 k-point 67 :   0.4741 0.2759 0.7500  plane waves:     371
 k-point 68 :   0.4698 0.2802 0.7500  plane waves:     371
 k-point 69 :   0.4655 0.2845 0.7500  plane waves:     371
 k-point 70 :   0.4612 0.2888 0.7500  plane waves:     371
 k-point 71 :   0.4569 0.2931 0.7500  plane waves:     371
 k-point 72 :   0.4526 0.2974 0.7500  plane waves:     369
 k-point 73 :   0.4483 0.3017 0.7500  plane waves:     369
 k-point 74 :   0.4440 0.3060 0.7500  plane waves:     369
 k-point 75 :   0.4397 0.3103 0.7500  plane waves:     363
 k-point 76 :   0.4353 0.3147 0.7500  plane waves:     363
 k-point 77 :   0.4310 0.3190 0.7500  plane waves:     366
 k-point 78 :   0.4267 0.3233 0.7500  plane waves:     366
 k-point 79 :   0.4224 0.3276 0.7500  plane waves:     366
 k-point 80 :   0.4181 0.3319 0.7500  plane waves:     364
 k-point 81 :   0.4138 0.3362 0.7500  plane waves:     364
 k-point 82 :   0.4095 0.3405 0.7500  plane waves:     366
 k-point 83 :   0.4052 0.3448 0.7500  plane waves:     366
 k-point 84 :   0.4009 0.3491 0.7500  plane waves:     365
 k-point 85 :   0.3966 0.3534 0.7500  plane waves:     365
 k-point 86 :   0.3922 0.3578 0.7500  plane waves:     365
 k-point 87 :   0.3879 0.3621 0.7500  plane waves:     365
 k-point 88 :   0.3836 0.3664 0.7500  plane waves:     365
 k-point 89 :   0.3793 0.3707 0.7500  plane waves:     365
 k-point 90 :   0.3750 0.3750 0.7500  plane waves:     363
 k-point 91 :   0.3750 0.3750 0.7500  plane waves:     363
 k-point 92 :   0.3621 0.3621 0.7241  plane waves:     365
 k-point 93 :   0.3491 0.3491 0.6983  plane waves:     369
 k-point 94 :   0.3362 0.3362 0.6724  plane waves:     365
 k-point 95 :   0.3233 0.3233 0.6466  plane waves:     361
 k-point 96 :   0.3103 0.3103 0.6207  plane waves:     361
 k-point 97 :   0.2974 0.2974 0.5948  plane waves:     361
 k-point 98 :   0.2845 0.2845 0.5690  plane waves:     361
 k-point 99 :   0.2716 0.2716 0.5431  plane waves:     367
 k-point ** :   0.2586 0.2586 0.5172  plane waves:     363
 k-point ** :   0.2457 0.2457 0.4914  plane waves:     363
 k-point ** :   0.2328 0.2328 0.4655  plane waves:     363
 k-point ** :   0.2198 0.2198 0.4397  plane waves:     361
 k-point ** :   0.2069 0.2069 0.4138  plane waves:     357
 k-point ** :   0.1940 0.1940 0.3879  plane waves:     357
 k-point ** :   0.1810 0.1810 0.3621  plane waves:     353
 k-point ** :   0.1681 0.1681 0.3362  plane waves:     357
 k-point ** :   0.1552 0.1552 0.3103  plane waves:     357
 k-point ** :   0.1422 0.1422 0.2845  plane waves:     361
 k-point ** :   0.1293 0.1293 0.2586  plane waves:     353
 k-point ** :   0.1164 0.1164 0.2328  plane waves:     353
 k-point ** :   0.1034 0.1034 0.2069  plane waves:     353
 k-point ** :   0.0905 0.0905 0.1810  plane waves:     353
 k-point ** :   0.0776 0.0776 0.1552  plane waves:     345
 k-point ** :   0.0647 0.0647 0.1293  plane waves:     343
 k-point ** :   0.0517 0.0517 0.1034  plane waves:     339
 k-point ** :   0.0388 0.0388 0.0776  plane waves:     337
 k-point ** :   0.0259 0.0259 0.0517  plane waves:     339
 k-point ** :   0.0129 0.0129 0.0259  plane waves:     339
 k-point ** :   0.0000 0.0000 0.0000  plane waves:     339
 k-point ** :   0.0000 0.0000 0.0000  plane waves:     339
 k-point ** :   0.0172 0.0172 0.0172  plane waves:     339
 k-point ** :   0.0345 0.0345 0.0345  plane waves:     339
 k-point ** :   0.0517 0.0517 0.0517  plane waves:     338
 k-point ** :   0.0690 0.0690 0.0690  plane waves:     338
 k-point ** :   0.0862 0.0862 0.0862  plane waves:     338
 k-point ** :   0.1034 0.1034 0.1034  plane waves:     341
 k-point ** :   0.1207 0.1207 0.1207  plane waves:     344
 k-point ** :   0.1379 0.1379 0.1379  plane waves:     344
 k-point ** :   0.1552 0.1552 0.1552  plane waves:     356
 k-point ** :   0.1724 0.1724 0.1724  plane waves:     356
 k-point ** :   0.1897 0.1897 0.1897  plane waves:     356
 k-point ** :   0.2069 0.2069 0.2069  plane waves:     356
 k-point ** :   0.2241 0.2241 0.2241  plane waves:     359
 k-point ** :   0.2414 0.2414 0.2414  plane waves:     359
 k-point ** :   0.2586 0.2586 0.2586  plane waves:     356
 k-point ** :   0.2759 0.2759 0.2759  plane waves:     353
 k-point ** :   0.2931 0.2931 0.2931  plane waves:     353
 k-point ** :   0.3103 0.3103 0.3103  plane waves:     359
 k-point ** :   0.3276 0.3276 0.3276  plane waves:     359
 k-point ** :   0.3448 0.3448 0.3448  plane waves:     359
 k-point ** :   0.3621 0.3621 0.3621  plane waves:     359
 k-point ** :   0.3793 0.3793 0.3793  plane waves:     359
 k-point ** :   0.3966 0.3966 0.3966  plane waves:     353
 k-point ** :   0.4138 0.4138 0.4138  plane waves:     356
 k-point ** :   0.4310 0.4310 0.4310  plane waves:     356
 k-point ** :   0.4483 0.4483 0.4483  plane waves:     356
 k-point ** :   0.4655 0.4655 0.4655  plane waves:     356
 k-point ** :   0.4828 0.4828 0.4828  plane waves:     362
 k-point ** :   0.5000 0.5000 0.5000  plane waves:     368
 k-point ** :   0.5000 0.5000 0.5000  plane waves:     368
 k-point ** :   0.5043 0.4914 0.5043  plane waves:     368
 k-point ** :   0.5086 0.4828 0.5086  plane waves:     360
 k-point ** :   0.5129 0.4741 0.5129  plane waves:     360
 k-point ** :   0.5172 0.4655 0.5172  plane waves:     358
 k-point ** :   0.5216 0.4569 0.5216  plane waves:     358
 k-point ** :   0.5259 0.4483 0.5259  plane waves:     358
 k-point ** :   0.5302 0.4397 0.5302  plane waves:     358
 k-point ** :   0.5345 0.4310 0.5345  plane waves:     360
 k-point ** :   0.5388 0.4224 0.5388  plane waves:     363
 k-point ** :   0.5431 0.4138 0.5431  plane waves:     363
 k-point ** :   0.5474 0.4052 0.5474  plane waves:     363
 k-point ** :   0.5517 0.3966 0.5517  plane waves:     363
 k-point ** :   0.5560 0.3879 0.5560  plane waves:     363
 k-point ** :   0.5603 0.3793 0.5603  plane waves:     366
 k-point ** :   0.5647 0.3707 0.5647  plane waves:     366
 k-point ** :   0.5690 0.3621 0.5690  plane waves:     365
 k-point ** :   0.5733 0.3534 0.5733  plane waves:     365
 k-point ** :   0.5776 0.3448 0.5776  plane waves:     363
 k-point ** :   0.5819 0.3362 0.5819  plane waves:     363
 k-point ** :   0.5862 0.3276 0.5862  plane waves:     363
 k-point ** :   0.5905 0.3190 0.5905  plane waves:     363
 k-point ** :   0.5948 0.3103 0.5948  plane waves:     364
 k-point ** :   0.5991 0.3017 0.5991  plane waves:     364
 k-point ** :   0.6034 0.2931 0.6034  plane waves:     362
 k-point ** :   0.6078 0.2845 0.6078  plane waves:     364
 k-point ** :   0.6121 0.2759 0.6121  plane waves:     368
 k-point ** :   0.6164 0.2672 0.6164  plane waves:     368
 k-point ** :   0.6207 0.2586 0.6207  plane waves:     367
 k-point ** :   0.6250 0.2500 0.6250  plane waves:     363
 k-point ** :   0.6250 0.2500 0.6250  plane waves:     363
 k-point ** :   0.6207 0.2500 0.6293  plane waves:     365
 k-point ** :   0.6164 0.2500 0.6336  plane waves:     365
 k-point ** :   0.6121 0.2500 0.6379  plane waves:     365
 k-point ** :   0.6078 0.2500 0.6422  plane waves:     365
 k-point ** :   0.6034 0.2500 0.6466  plane waves:     365
 k-point ** :   0.5991 0.2500 0.6509  plane waves:     365
 k-point ** :   0.5948 0.2500 0.6552  plane waves:     366
 k-point ** :   0.5905 0.2500 0.6595  plane waves:     366
 k-point ** :   0.5862 0.2500 0.6638  plane waves:     364
 k-point ** :   0.5819 0.2500 0.6681  plane waves:     364
 k-point ** :   0.5776 0.2500 0.6724  plane waves:     366
 k-point ** :   0.5733 0.2500 0.6767  plane waves:     366
 k-point ** :   0.5690 0.2500 0.6810  plane waves:     366
 k-point ** :   0.5647 0.2500 0.6853  plane waves:     363
 k-point ** :   0.5603 0.2500 0.6897  plane waves:     363
 k-point ** :   0.5560 0.2500 0.6940  plane waves:     369
 k-point ** :   0.5517 0.2500 0.6983  plane waves:     369
 k-point ** :   0.5474 0.2500 0.7026  plane waves:     369
 k-point ** :   0.5431 0.2500 0.7069  plane waves:     371
 k-point ** :   0.5388 0.2500 0.7112  plane waves:     371
 k-point ** :   0.5345 0.2500 0.7155  plane waves:     371
 k-point ** :   0.5302 0.2500 0.7198  plane waves:     371
 k-point ** :   0.5259 0.2500 0.7241  plane waves:     371
 k-point ** :   0.5216 0.2500 0.7284  plane waves:     365
 k-point ** :   0.5172 0.2500 0.7328  plane waves:     365
 k-point ** :   0.5129 0.2500 0.7371  plane waves:     363
 k-point ** :   0.5086 0.2500 0.7414  plane waves:     360
 k-point ** :   0.5043 0.2500 0.7457  plane waves:     360
 k-point ** :   0.5000 0.2500 0.7500  plane waves:     360
 k-point ** :   0.5000 0.2500 0.7500  plane waves:     360
 k-point ** :   0.5000 0.2586 0.7414  plane waves:     360
 k-point ** :   0.5000 0.2672 0.7328  plane waves:     368
 k-point ** :   0.5000 0.2759 0.7241  plane waves:     370
 k-point ** :   0.5000 0.2845 0.7155  plane waves:     370
 k-point ** :   0.5000 0.2931 0.7069  plane waves:     370
 k-point ** :   0.5000 0.3017 0.6983  plane waves:     366
 k-point ** :   0.5000 0.3103 0.6897  plane waves:     366
 k-point ** :   0.5000 0.3190 0.6810  plane waves:     368
 k-point ** :   0.5000 0.3276 0.6724  plane waves:     368
 k-point ** :   0.5000 0.3362 0.6638  plane waves:     368
 k-point ** :   0.5000 0.3448 0.6552  plane waves:     368
 k-point ** :   0.5000 0.3534 0.6466  plane waves:     366
 k-point ** :   0.5000 0.3621 0.6379  plane waves:     366
 k-point ** :   0.5000 0.3707 0.6293  plane waves:     366
 k-point ** :   0.5000 0.3793 0.6207  plane waves:     370
 k-point ** :   0.5000 0.3879 0.6121  plane waves:     362
 k-point ** :   0.5000 0.3966 0.6034  plane waves:     362
 k-point ** :   0.5000 0.4052 0.5948  plane waves:     360
 k-point ** :   0.5000 0.4138 0.5862  plane waves:     360
 k-point ** :   0.5000 0.4224 0.5776  plane waves:     360
 k-point ** :   0.5000 0.4310 0.5690  plane waves:     360
 k-point ** :   0.5000 0.4397 0.5603  plane waves:     360
 k-point ** :   0.5000 0.4483 0.5517  plane waves:     358
 k-point ** :   0.5000 0.4569 0.5431  plane waves:     356
 k-point ** :   0.5000 0.4655 0.5345  plane waves:     356
 k-point ** :   0.5000 0.4741 0.5259  plane waves:     360
 k-point ** :   0.5000 0.4828 0.5172  plane waves:     360
 k-point ** :   0.5000 0.4914 0.5086  plane waves:     366
 k-point ** :   0.5000 0.5000 0.5000  plane waves:     368
 k-point ** :   0.5000 0.5000 0.5000  plane waves:     368
 k-point ** :   0.4957 0.4957 0.5086  plane waves:     368
 k-point ** :   0.4914 0.4914 0.5172  plane waves:     360
 k-point ** :   0.4871 0.4871 0.5259  plane waves:     360
 k-point ** :   0.4828 0.4828 0.5345  plane waves:     358
 k-point ** :   0.4784 0.4784 0.5431  plane waves:     358
 k-point ** :   0.4741 0.4741 0.5517  plane waves:     358
 k-point ** :   0.4698 0.4698 0.5603  plane waves:     358
 k-point ** :   0.4655 0.4655 0.5690  plane waves:     360
 k-point ** :   0.4612 0.4612 0.5776  plane waves:     363
 k-point ** :   0.4569 0.4569 0.5862  plane waves:     363
 k-point ** :   0.4526 0.4526 0.5948  plane waves:     363
 k-point ** :   0.4483 0.4483 0.6034  plane waves:     363
 k-point ** :   0.4440 0.4440 0.6121  plane waves:     363
 k-point ** :   0.4397 0.4397 0.6207  plane waves:     366
 k-point ** :   0.4353 0.4353 0.6293  plane waves:     366
 k-point ** :   0.4310 0.4310 0.6379  plane waves:     365
 k-point ** :   0.4267 0.4267 0.6466  plane waves:     365
 k-point ** :   0.4224 0.4224 0.6552  plane waves:     363
 k-point ** :   0.4181 0.4181 0.6638  plane waves:     363
 k-point ** :   0.4138 0.4138 0.6724  plane waves:     363
 k-point ** :   0.4095 0.4095 0.6810  plane waves:     363
 k-point ** :   0.4052 0.4052 0.6897  plane waves:     364
 k-point ** :   0.4009 0.4009 0.6983  plane waves:     364
 k-point ** :   0.3966 0.3966 0.7069  plane waves:     362
 k-point ** :   0.3922 0.3922 0.7155  plane waves:     364
 k-point ** :   0.3879 0.3879 0.7241  plane waves:     368
 k-point ** :   0.3836 0.3836 0.7328  plane waves:     368
 k-point ** :   0.3793 0.3793 0.7414  plane waves:     367
 k-point ** :   0.3750 0.3750 0.7500  plane waves:     363
 k-point ** :   0.6250 0.2500 0.6250  plane waves:     363
 k-point ** :   0.6207 0.2414 0.6207  plane waves:     363
 k-point ** :   0.6164 0.2328 0.6164  plane waves:     363
 k-point ** :   0.6121 0.2241 0.6121  plane waves:     363
 k-point ** :   0.6078 0.2155 0.6078  plane waves:     363
 k-point ** :   0.6034 0.2069 0.6034  plane waves:     363
 k-point ** :   0.5991 0.1983 0.5991  plane waves:     359
 k-point ** :   0.5948 0.1897 0.5948  plane waves:     359
 k-point ** :   0.5905 0.1810 0.5905  plane waves:     359
 k-point ** :   0.5862 0.1724 0.5862  plane waves:     359
 k-point ** :   0.5819 0.1638 0.5819  plane waves:     359
 k-point ** :   0.5776 0.1552 0.5776  plane waves:     359
 k-point ** :   0.5733 0.1466 0.5733  plane waves:     359
 k-point ** :   0.5690 0.1379 0.5690  plane waves:     359
 k-point ** :   0.5647 0.1293 0.5647  plane waves:     359
 k-point ** :   0.5603 0.1207 0.5603  plane waves:     359
 k-point ** :   0.5560 0.1121 0.5560  plane waves:     359
 k-point ** :   0.5517 0.1034 0.5517  plane waves:     359
 k-point ** :   0.5474 0.0948 0.5474  plane waves:     359
 k-point ** :   0.5431 0.0862 0.5431  plane waves:     359
 k-point ** :   0.5388 0.0776 0.5388  plane waves:     357
 k-point ** :   0.5345 0.0690 0.5345  plane waves:     357
 k-point ** :   0.5302 0.0603 0.5302  plane waves:     351
 k-point ** :   0.5259 0.0517 0.5259  plane waves:     353
 k-point ** :   0.5216 0.0431 0.5216  plane waves:     352
 k-point ** :   0.5172 0.0345 0.5172  plane waves:     352
 k-point ** :   0.5129 0.0259 0.5129  plane waves:     352
 k-point ** :   0.5086 0.0172 0.5086  plane waves:     352
 k-point ** :   0.5043 0.0086 0.5043  plane waves:     352
 k-point ** :   0.5000 0.0000 0.5000  plane waves:     360

 maximum and minimum number of plane-waves per node :        97       78

 maximum number of plane-waves:       371
 maximum index in each direction: 
   IXMAX=    4   IYMAX=    4   IZMAX=    4
   IXMIN=   -5   IYMIN=   -5   IZMIN=   -5

 WARNING: aliasing errors must be expected set NGX to  20 to avoid them
 WARNING: aliasing errors must be expected set NGY to  20 to avoid them
 WARNING: aliasing errors must be expected set NGZ to  20 to avoid them
 aliasing errors are usually negligible using standard VASP settings
 and one can safely disregard these warnings

 parallel 3D FFT for wavefunctions:
    minimum data exchange during FFTs selected (reduces bandwidth)
 parallel 3D FFT for charge:
    minimum data exchange during FFTs selected (reduces bandwidth)


 total amount of memory used by VASP on root node    33097. kBytes
========================================================================

   base      :      30000. kBytes
   nonl-proj :       1846. kBytes
   fftplans  :        106. kBytes
   grid      :        144. kBytes
   one-center:          3. kBytes
   wavefun   :        998. kBytes
 
     INWAV:  cpu time    0.0000: real time    0.0001
 initial charge density was supplied:
 number of electron       7.9999994 magnetization 
 keeping initial charge density in first step


--------------------------------------------------------------------------------------------------------


 Maximum index for augmentation-charges          207 (set IRDMAX)


--------------------------------------------------------------------------------------------------------


 First call to EWALD:  gamma=   0.518
 Maximum number of real-space cells 3x 3x 3
 Maximum number of reciprocal cells 3x 3x 3

 FEWALD executed in parallel
    FEWALD:  cpu time    0.0030: real time    0.0052


----------------------------------------- Iteration    1(   1)  ---------------------------------------


    POTLOK:  cpu time    0.0010: real time    0.0138
    SETDIJ:  cpu time    0.0030: real time    0.0083
     EDDAV:  cpu time    0.4859: real time    0.4955
       DOS:  cpu time    0.0040: real time    0.0053
    --------------------------------------------
      LOOP:  cpu time    0.4959: real time    0.5248

 eigenvalue-minimisations  :  4888
 total energy-change (2. order) :-0.2593622E+01  (-0.2147009E+03)
 number of electron       7.9999994 magnetization 
 augmentation part        7.9999994 magnetization 

 Free energy of the ion-electron system (eV)
  ---------------------------------------------------
  alpha Z        PSCENC =         3.36414620
  Ewald energy   TEWEN  =      -228.56350093
  -Hartree energ DENC   =       -14.96999838
  -exchange      EXHF   =         0.00000000
  -V(xc)+E(xc)   XCENC  =       -17.94692532
  PAW double counting   =      1014.72333715     -979.76890754
  entropy T*S    EENTRO =        -0.00064547
  eigenvalues    EBANDS =        14.44537269
  atomic energy  EATOM  =       206.12349923
  Solvation  Ediel_sol  =         0.00000000
  ---------------------------------------------------
  free energy    TOTEN  =        -2.59362237 eV

  energy without entropy =       -2.59297690  energy(sigma->0) =       -2.59329964


--------------------------------------------------------------------------------------------------------




----------------------------------------- Iteration    1(   2)  ---------------------------------------


     EDDAV:  cpu time    0.7319: real time    0.7328
       DOS:  cpu time    0.0010: real time    0.0009
    --------------------------------------------
      LOOP:  cpu time    0.7349: real time    0.7366

 eigenvalue-minimisations  :  7320
 total energy-change (2. order) :-0.8342955E+01  (-0.7944955E+01)
 number of electron       7.9999994 magnetization 
 augmentation part        7.9999994 magnetization 

 Free energy of the ion-electron system (eV)
  ---------------------------------------------------
  alpha Z        PSCENC =         3.36414620
  Ewald energy   TEWEN  =      -228.56350093
  -Hartree energ DENC   =       -14.96999838
  -exchange      EXHF   =         0.00000000
  -V(xc)+E(xc)   XCENC  =       -17.94692532
  PAW double counting   =      1014.72333715     -979.76890754
  entropy T*S    EENTRO =        -0.00000000
  eigenvalues    EBANDS =         6.10177206
  atomic energy  EATOM  =       206.12349923
  Solvation  Ediel_sol  =         0.00000000
  ---------------------------------------------------
  free energy    TOTEN  =       -10.93657753 eV

  energy without entropy =      -10.93657753  energy(sigma->0) =      -10.93657753


--------------------------------------------------------------------------------------------------------




----------------------------------------- Iteration    1(   3)  ---------------------------------------


     EDDAV:  cpu time    0.6569: real time    0.6573
       DOS:  cpu time    0.0010: real time    0.0009
    --------------------------------------------
      LOOP:  cpu time    0.6579: real time    0.6587

 eigenvalue-minimisations  :  6512
 total energy-change (2. order) :-0.8693501E-01  (-0.8693501E-01)
 number of electron       7.9999994 magnetization 
 augmentation part        7.9999994 magnetization 

 Free energy of the ion-electron system (eV)
  ---------------------------------------------------
  alpha Z        PSCENC =         3.36414620
  Ewald energy   TEWEN  =      -228.56350093
  -Hartree energ DENC   =       -14.96999838
  -exchange      EXHF   =         0.00000000
  -V(xc)+E(xc)   XCENC  =       -17.94692532
  PAW double counting   =      1014.72333715     -979.76890754
  entropy T*S    EENTRO =        -0.00000000
  eigenvalues    EBANDS =         6.01483705
  atomic energy  EATOM  =       206.12349923
  Solvation  Ediel_sol  =         0.00000000
  ---------------------------------------------------
  free energy    TOTEN  =       -11.02351254 eV

  energy without entropy =      -11.02351254  energy(sigma->0) =      -11.02351254


--------------------------------------------------------------------------------------------------------




----------------------------------------- Iteration    1(   4)  ---------------------------------------


     EDDAV:  cpu time    0.7549: real time    0.7559
       DOS:  cpu time    0.0010: real time    0.0010
    --------------------------------------------
      LOOP:  cpu time    0.7569: real time    0.7574

 eigenvalue-minimisations  :  7488
 total energy-change (2. order) :-0.2285644E-03  (-0.2285644E-03)
 number of electron       7.9999994 magnetization 
 augmentation part        7.9999994 magnetization 

 Free energy of the ion-electron system (eV)
  ---------------------------------------------------
  alpha Z        PSCENC =         3.36414620
  Ewald energy   TEWEN  =      -228.56350093
  -Hartree energ DENC   =       -14.96999838
  -exchange      EXHF   =         0.00000000
  -V(xc)+E(xc)   XCENC  =       -17.94692532
  PAW double counting   =      1014.72333715     -979.76890754
  entropy T*S    EENTRO =        -0.00000000
  eigenvalues    EBANDS =         6.01460848
  atomic energy  EATOM  =       206.12349923
  Solvation  Ediel_sol  =         0.00000000
  ---------------------------------------------------
  free energy    TOTEN  =       -11.02374110 eV

  energy without entropy =      -11.02374110  energy(sigma->0) =      -11.02374110


--------------------------------------------------------------------------------------------------------




----------------------------------------- Iteration    1(   5)  ---------------------------------------


     EDDAV:  cpu time    0.6549: real time    0.6555
       DOS:  cpu time    0.0010: real time    0.0009
    --------------------------------------------
      LOOP:  cpu time    0.6559: real time    0.6569

 eigenvalue-minimisations  :  6568
 total energy-change (2. order) :-0.3791585E-06  (-0.3789020E-06)
 number of electron       7.9999994 magnetization 
 augmentation part        7.9999994 magnetization 

 Free energy of the ion-electron system (eV)
  ---------------------------------------------------
  alpha Z        PSCENC =         3.36414620
  Ewald energy   TEWEN  =      -228.56350093
  -Hartree energ DENC   =       -14.96999838
  -exchange      EXHF   =         0.00000000
  -V(xc)+E(xc)   XCENC  =       -17.94692532
  PAW double counting   =      1014.72333715     -979.76890754
  entropy T*S    EENTRO =        -0.00000000
  eigenvalues    EBANDS =         6.01460811
  atomic energy  EATOM  =       206.12349923
  Solvation  Ediel_sol  =         0.00000000
  ---------------------------------------------------
  free energy    TOTEN  =       -11.02374148 eV

  energy without entropy =      -11.02374148  energy(sigma->0) =      -11.02374148


--------------------------------------------------------------------------------------------------------




----------------------------------------- Iteration    1(   6)  ---------------------------------------


    EDDIAG:  cpu time    0.2540: real time    0.2824
  RMM-DIIS:  cpu time    0.1590: real time    0.1596
    ORTHCH:  cpu time    0.0230: real time    0.0232
       DOS:  cpu time    0.0010: real time    0.0010
    --------------------------------------------
      LOOP:  cpu time    0.4379: real time    0.4667

 eigenvalue-minimisations  :  1648
 total energy-change (2. order) :-0.3301807E-08  (-0.3558261E-08)
 number of electron       7.9999994 magnetization 
 augmentation part        7.9999994 magnetization 

 Free energy of the ion-electron system (eV)
  ---------------------------------------------------
  alpha Z        PSCENC =         3.36414620
  Ewald energy   TEWEN  =      -228.56350093
  -Hartree energ DENC   =       -14.96999838
  -exchange      EXHF   =         0.00000000
  -V(xc)+E(xc)   XCENC  =       -17.94692532
  PAW double counting   =      1014.72333715     -979.76890754
  entropy T*S    EENTRO =        -0.00000000
  eigenvalues    EBANDS =         6.01460810
  atomic energy  EATOM  =       206.12349923
  Solvation  Ediel_sol  =         0.00000000
  ---------------------------------------------------
  free energy    TOTEN  =       -11.02374149 eV

  energy without entropy =      -11.02374149  energy(sigma->0) =      -11.02374149


--------------------------------------------------------------------------------------------------------




 average (electrostatic) potential at core
  the test charge radii are     0.9892
  (the norm of the test charge is              1.0000)
       1 -83.2347       2 -83.2347
 
 
 
 E-fermi :   6.1185     XC(G=0):  -9.4066     alpha+bet :-11.9845


 k-point     1 :       0.0000    0.0000    0.0000
  band No.  band energies     occupation 
      1      -6.1238      2.00000
      2       5.8496      2.00000
      3       5.8496      2.00000
      4       5.8496      2.00000
      5       8.4142      0.00000
      6       8.4142      0.00000
      7       8.4142      0.00000
      8       9.2171      0.00000

 k-point     2 :       0.0172    0.0000    0.0172
  band No.  band energies     occupation 
      1      -6.1186      2.00000
      2       5.8138      2.00000
      3       5.8269      2.00000
      4       5.8269      2.00000
      5       8.4012      0.00000
      6       8.4433      0.00000
      7       8.4433      0.00000
      8       9.2522      0.00000

 k-point     3 :       0.0345    0.0000    0.0345
  band No.  band energies     occupation 
      1      -6.1030      2.00000
      2       5.7107      2.00000
      3       5.7618      2.00000
      4       5.7618      2.00000
      5       8.3629      0.00000
      6       8.5278      0.00000
      7       8.5278      0.00000
      8       9.3524      0.00000

 k-point     4 :       0.0517    0.0000    0.0517
[...]
      7      12.2373      0.00000
      8      12.4341      0.00000

 k-point   265 :       0.3966    0.3966    0.7069
  band No.  band energies     occupation 
      1      -2.7268      2.00000
      2      -1.1015      2.00000
      3       1.5599      2.00000
      4       3.5945      2.00000
      5       7.2732      0.00000
      6      10.9001      0.00000
      7      12.4483      0.00000
      8      12.6789      0.00000

 k-point   266 :       0.3922    0.3922    0.7155
  band No.  band energies     occupation 
      1      -2.6488      2.00000
      2      -1.1565      2.00000
      3       1.5244      2.00000
      4       3.5534      2.00000
      5       7.2223      0.00000
      6      10.7129      0.00000
      7      12.6528      0.00000
      8      12.9303      0.00000

 k-point   267 :       0.3879    0.3879    0.7241
  band No.  band energies     occupation 
      1      -2.5728      2.00000
      2      -1.2169      2.00000
      3       1.5052      2.00000
      4       3.5148      2.00000
      5       7.1750      0.00000
      6      10.5262      0.00000
      7      12.8523      0.00000
      8      13.1853      0.00000

 k-point   268 :       0.3836    0.3836    0.7328
  band No.  band energies     occupation 
      1      -2.5015      2.00000
      2      -1.2790      2.00000
      3       1.5018      2.00000
      4       3.4790      2.00000
      5       7.1318      0.00000
      6      10.3428      0.00000
      7      13.0386      0.00000
      8      13.4420      0.00000

 k-point   269 :       0.3793    0.3793    0.7414
  band No.  band energies     occupation 
      1      -2.4388      2.00000
      2      -1.3379      2.00000
      3       1.5128      2.00000
      4       3.4460      2.00000
      5       7.0927      0.00000
      6      10.1629      0.00000
      7      13.2009      0.00000
      8      13.6923      0.00000

 k-point   270 :       0.3750    0.3750    0.7500
  band No.  band energies     occupation 
      1      -2.3906      2.00000
      2      -1.3864      2.00000
      3       1.5369      2.00000
      4       3.4161      2.00000
      5       7.0578      0.00000
      6       9.9878      0.00000
      7      13.3291      0.00000
      8      13.8970      0.00000

 k-point   271 :       0.6250    0.2500    0.6250
  band No.  band energies     occupation 
      1      -2.3906      2.00000
      2      -1.3864      2.00000
      3       1.5369      2.00000
      4       3.4161      2.00000
      5       7.0578      0.00000
      6       9.9878      0.00000
      7      13.3291      0.00000
      8      13.8919      0.00000

 k-point   272 :       0.6207    0.2414    0.6207
  band No.  band energies     occupation 
      1      -2.3532      2.00000
      2      -1.4263      2.00000
      3       1.5691      2.00000
      4       3.3879      2.00000
      5       7.0251      0.00000
      6       9.8146      0.00000
      7      13.4367      0.00000
      8      14.0265      0.00000

 k-point   273 :       0.6164    0.2328    0.6164
  band No.  band energies     occupation 
      1      -2.3179      2.00000
      2      -1.4648      2.00000
      3       1.6050      2.00000
      4       3.3606      2.00000
      5       6.9935      0.00000
      6       9.6431      0.00000
      7      13.5443      0.00000
      8      14.1228      0.00000

 k-point   274 :       0.6121    0.2241    0.6121
  band No.  band energies     occupation 
      1      -2.2849      2.00000
      2      -1.5019      2.00000
      3       1.6447      2.00000
      4       3.3342      2.00000
      5       6.9628      0.00000
      6       9.4733      0.00000
      7      13.6533      0.00000
      8      14.2335      0.00000

 k-point   275 :       0.6078    0.2155    0.6078
  band No.  band energies     occupation 
      1      -2.2540      2.00000
      2      -1.5376      2.00000
      3       1.6880      2.00000
      4       3.3087      2.00000
      5       6.9333      0.00000
      6       9.3053      0.00000
      7      13.7626      0.00000
      8      14.3489      0.00000

 k-point   276 :       0.6034    0.2069    0.6034
  band No.  band energies     occupation 
      1      -2.2253      2.00000
      2      -1.5720      2.00000
      3       1.7347      2.00000
      4       3.2841      2.00000
      5       6.9048      0.00000
      6       9.1395      0.00000
      7      13.8717      0.00000
      8      14.4967      0.00000

 k-point   277 :       0.5991    0.1983    0.5991
  band No.  band energies     occupation 
      1      -2.1983      2.00000
      2      -1.6049      2.00000
      3       1.7852      2.00000
      4       3.2604      2.00000
      5       6.8774      0.00000
      6       8.9774      0.00000
      7      13.9818      0.00000
      8      14.5806      0.00000

 k-point   278 :       0.5948    0.1897    0.5948
  band No.  band energies     occupation 
      1      -2.1737      2.00000
      2      -1.6364      2.00000
      3       1.8384      2.00000
      4       3.2376      2.00000
      5       6.8511      0.00000
      6       8.8161      0.00000
      7      14.0925      0.00000
      8      14.6960      0.00000

 k-point   279 :       0.5905    0.1810    0.5905
  band No.  band energies     occupation 
      1      -2.1511      2.00000
      2      -1.6666      2.00000
      3       1.8946      2.00000
      4       3.2158      2.00000
      5       6.8258      0.00000
      6       8.6575      0.00000
      7      14.2039      0.00000
      8      14.7789      0.00000

 k-point   280 :       0.5862    0.1724    0.5862
  band No.  band energies     occupation 
      1      -2.1304      2.00000
      2      -1.6954      2.00000
      3       1.9534      2.00000
      4       3.1949      2.00000
      5       6.8017      0.00000
      6       8.5016      0.00000
      7      14.3164      0.00000
      8      14.8806      0.00000

 k-point   281 :       0.5819    0.1638    0.5819
  band No.  band energies     occupation 
      1      -2.1114      2.00000
      2      -1.7227      2.00000
      3       2.0146      2.00000
      4       3.1750      2.00000
      5       6.7787      0.00000
      6       8.3487      0.00000
      7      14.4248      0.00000
      8      14.9468      0.00000

 k-point   282 :       0.5776    0.1552    0.5776
  band No.  band energies     occupation 
      1      -2.0942      2.00000
      2      -1.7487      2.00000
      3       2.0778      2.00000
      4       3.1561      2.00000
      5       6.7568      0.00000
      6       8.1991      0.00000
      7      14.5360      0.00000
      8      15.0508      0.00000

 k-point   283 :       0.5733    0.1466    0.5733
  band No.  band energies     occupation 
      1      -2.0786      2.00000
      2      -1.7733      2.00000
      3       2.1428      2.00000
      4       3.1382      2.00000
      5       6.7360      0.00000
      6       8.0530      0.00000
      7      14.6500      0.00000
      8      15.1396      0.00000

 k-point   284 :       0.5690    0.1379    0.5690
  band No.  band energies     occupation 
      1      -2.0645      2.00000
      2      -1.7965      2.00000
      3       2.2092      2.00000
      4       3.1212      2.00000
      5       6.7164      0.00000
      6       7.9107      0.00000
      7      14.7581      0.00000
      8      15.2484      0.00000

 k-point   285 :       0.5647    0.1293    0.5647
  band No.  band energies     occupation 
      1      -2.0518      2.00000
      2      -1.8183      2.00000
      3       2.2766      2.00000
      4       3.1052      2.00000
      5       6.6979      0.00000
      6       7.7725      0.00000
      7      14.8618      0.00000
      8      15.3378      0.00000

 k-point   286 :       0.5603    0.1207    0.5603
  band No.  band energies     occupation 
      1      -2.0404      2.00000
      2      -1.8386      2.00000
      3       2.3445      2.00000
      4       3.0902      2.00000
      5       6.6806      0.00000
      6       7.6388      0.00000
      7      14.9695      0.00000
      8      15.3513      0.00000

 k-point   287 :       0.5560    0.1121    0.5560
  band No.  band energies     occupation 
      1      -2.0302      2.00000
      2      -1.8576      2.00000
      3       2.4124      2.00000
      4       3.0763      2.00000
      5       6.6645      0.00000
      6       7.5100      0.00000
      7      15.0770      0.00000
      8      15.4342      0.00000

 k-point   288 :       0.5517    0.1034    0.5517
  band No.  band energies     occupation 
      1      -2.0212      2.00000
      2      -1.8752      2.00000
      3       2.4798      2.00000
      4       3.0633      2.00000
      5       6.6496      0.00000
      6       7.3866      0.00000
      7      15.1818      0.00000
      8      15.5152      0.00000

 k-point   289 :       0.5474    0.0948    0.5474
  band No.  band energies     occupation 
      1      -2.0132      2.00000
      2      -1.8914      2.00000
      3       2.5461      2.00000
      4       3.0514      2.00000
      5       6.6358      0.00000
      6       7.2691      0.00000
      7      15.2808      0.00000
      8      15.5553      0.00000

 k-point   290 :       0.5431    0.0862    0.5431
  band No.  band energies     occupation 
      1      -2.0063      2.00000
      2      -1.9061      2.00000
      3       2.6106      2.00000
      4       3.0405      2.00000
      5       6.6232      0.00000
      6       7.1580      0.00000
      7      15.3786      0.00000
      8      15.6823      0.00000

 k-point   291 :       0.5388    0.0776    0.5388
  band No.  band energies     occupation 
      1      -2.0002      2.00000
      2      -1.9195      2.00000
      3       2.6727      2.00000
      4       3.0306      2.00000
      5       6.6118      0.00000
      6       7.0541      0.00000
      7      15.4795      0.00000
      8      15.6987      0.00000

 k-point   292 :       0.5345    0.0690    0.5345
  band No.  band energies     occupation 
      1      -1.9949      2.00000
      2      -1.9315      2.00000
      3       2.7315      2.00000
      4       3.0217      2.00000
      5       6.6016      0.00000
      6       6.9580      0.00000
      7      15.5646      0.00000
      8      15.7550      0.00000

 k-point   293 :       0.5302    0.0603    0.5302
  band No.  band energies     occupation 
      1      -1.9904      2.00000
      2      -1.9420      2.00000
      3       2.7864      2.00000
      4       3.0139      2.00000
      5       6.5932      0.00000
      6       6.8705      0.00000
      7      15.6504      0.00000
      8      15.7889      0.00000

 k-point   294 :       0.5259    0.0517    0.5259
  band No.  band energies     occupation 
      1      -1.9866      2.00000
      2      -1.9512      2.00000
      3       2.8363      2.00000
      4       3.0071      2.00000
      5       6.5849      0.00000
      6       6.7919      0.00000
      7      15.7273      0.00000
      8      15.8464      0.00000

 k-point   295 :       0.5216    0.0431    0.5216
  band No.  band energies     occupation 
      1      -1.9833      2.00000
      2      -1.9589      2.00000
      3       2.8806      2.00000
      4       3.0014      2.00000
      5       6.5783      0.00000
      6       6.7250      0.00000
      7      15.7969      0.00000
      8      15.8832      0.00000

 k-point   296 :       0.5172    0.0345    0.5172
  band No.  band energies     occupation 
      1      -1.9808      2.00000
      2      -1.9652      2.00000
      3       2.9181      2.00000
      4       2.9967      2.00000
      5       6.5729      0.00000
      6       6.6680      0.00000
      7      15.8557      0.00000
      8      15.9147      0.00000

 k-point   297 :       0.5129    0.0259    0.5129
  band No.  band energies     occupation 
      1      -1.9789      2.00000
      2      -1.9702      2.00000
      3       2.9482      2.00000
      4       2.9930      2.00000
      5       6.5687      0.00000
      6       6.6228      0.00000
      7      15.9083      0.00000
      8      15.9493      0.00000

 k-point   298 :       0.5086    0.0172    0.5086
  band No.  band energies     occupation 
      1      -1.9776      2.00000
      2      -1.9737      2.00000
      3       2.9703      2.00000
      4       2.9904      2.00000
      5       6.5657      0.00000
      6       6.5899      0.00000
      7      15.9410      0.00000
      8      15.9684      0.00000

 k-point   299 :       0.5043    0.0086    0.5043
  band No.  band energies     occupation 
      1      -1.9768      2.00000
      2      -1.9758      2.00000
      3       2.9837      2.00000
      4       2.9888      2.00000
      5       6.5638      0.00000
      6       6.5700      0.00000
      7      15.9635      0.00000
      8      15.9673      0.00000

 k-point   300 :       0.5000    0.0000    0.5000
  band No.  band energies     occupation 
      1      -1.9765      2.00000
      2      -1.9765      2.00000
      3       2.9879      2.00000
      4       2.9879      2.00000
      5       6.5624      0.00000
      6       6.5624      0.00000
      7      15.9706      0.00000
      8      16.0719      0.00000


--------------------------------------------------------------------------------------------------------


 soft charge-density along one line, spin component           1
         0         1         2         3         4         5         6         7         8         9
 total charge-density along one line
 
 pseudopotential strength for first ion, spin component:           1
 18.414  25.691   0.000   0.000   0.000   0.000   0.000   0.000
 25.691  35.847   0.000   0.000   0.000   0.000   0.000   0.000
  0.000   0.000   4.179  -0.000  -0.000   7.787  -0.000  -0.000
  0.000   0.000  -0.000   4.179  -0.000  -0.000   7.787  -0.000
  0.000   0.000  -0.000  -0.000   4.179  -0.000  -0.000   7.787
  0.000   0.000   7.787  -0.000  -0.000  14.521  -0.000  -0.000
  0.000   0.000  -0.000   7.787  -0.000  -0.000  14.521  -0.000
  0.000   0.000  -0.000  -0.000   7.787  -0.000  -0.000  14.521
 total augmentation occupancy for first ion, spin component:           1
  2.000   0.000   0.000   0.000   0.000   0.000   0.000   0.000
  0.000   0.000   0.000   0.000   0.000   0.000   0.000   0.000
  0.000   0.000   0.667   0.000   0.000   0.000   0.000   0.000
  0.000   0.000   0.000   0.667   0.000   0.000   0.000   0.000
  0.000   0.000   0.000   0.000   0.667   0.000   0.000   0.000
  0.000   0.000   0.000   0.000   0.000   0.000   0.000   0.000
  0.000   0.000   0.000   0.000   0.000   0.000   0.000   0.000
  0.000   0.000   0.000   0.000   0.000   0.000   0.000   0.000


------------------------ aborting loop because EDIFF is reached ----------------------------------------


    CHARGE:  cpu time    0.0130: real time    0.0149
    FORLOC:  cpu time    0.0000: real time    0.0009
    FORNL :  cpu time    0.0190: real time    0.0233
    STRESS:  cpu time    0.1350: real time    0.1411
    FORCOR:  cpu time    0.0010: real time    0.0033
    FORHAR:  cpu time    0.0010: real time    0.0040
    OFIELD:  cpu time    0.0000: real time    0.0011

  FORCE on cell =-STRESS in cart. coord.  units (eV):
  Direction    XX          YY          ZZ          XY          YZ          ZX
  --------------------------------------------------------------------------------------
  Alpha Z     3.36415     3.36415     3.36415
  Ewald     -76.18787   -76.18787   -76.18787     0.00000     0.00000     0.00000
  Hartree     5.03558     5.03558     5.03558    -0.00000     0.00000     0.00000
  E(xc)     -25.39268   -25.39268   -25.39268     0.00001     0.00001     0.00001
  Local     -29.37598   -29.37598   -29.37598     0.00005     0.00005     0.00005
  n-local    79.69181    75.25599    77.56760    -1.65656    -0.68783    -1.40691
  augment   -11.46453   -11.46453   -11.46453    -0.00004    -0.00004    -0.00004
  Kinetic    56.50028    55.50096    58.11988    -2.13540    -1.24244    -2.31608
  Fock        0.00000     0.00000     0.00000     0.00000     0.00000     0.00000
  -------------------------------------------------------------------------------------
  Total       0.19085     0.19085     0.19085     0.00000     0.00000     0.00000
  in kB       7.63953     7.63953     7.63953     0.00000     0.00000     0.00000
  external pressure =        7.64 kB  Pullay stress =        0.00 kB


 VOLUME and BASIS-vectors are now :
 -----------------------------------------------------------------------------
  energy-cutoff  :      250.00
  volume of cell :       40.03
      direct lattice vectors                 reciprocal lattice vectors
     0.000000000  2.715000285  2.715000285    -0.184162043  0.184162043  0.184162043
     2.715000285  0.000000000  2.715000285     0.184162043 -0.184162043  0.184162043
     2.715000285  2.715000285  0.000000000     0.184162043  0.184162043 -0.184162043

  length of vectors
     3.839590225  3.839590225  3.839590225     0.318978016  0.318978016  0.318978016


 FORCES acting on ions
    electron-ion (+dipol)            ewald-force                    non-local-force                 convergence-correction
 -----------------------------------------------------------------------------------------------
   -.300E-05 -.300E-05 -.301E-05   0.696E-15 -.118E-14 -.523E-15   0.867E-16 0.104E-16 -.486E-16   -.347E-07 -.347E-07 -.366E-07
   0.300E-05 0.300E-05 0.301E-05   -.571E-15 0.143E-14 0.860E-15   -.208E-16 0.694E-16 -.121E-16   0.347E-07 0.347E-07 0.366E-07
 -----------------------------------------------------------------------------------------------
   0.142E-13 0.499E-13 0.221E-13   0.126E-15 0.256E-15 0.337E-15   0.659E-16 0.798E-16 -.607E-16   -.136E-15 -.250E-15 0.751E-15
 
 
 POSITION                                       TOTAL-FORCE (eV/Angst)
 -----------------------------------------------------------------------------------
      2.03625      2.03625      0.67875         0.000000      0.000000      0.000000
      3.39375      3.39375      4.75125        -0.000000     -0.000000     -0.000000
 -----------------------------------------------------------------------------------
    total drift:                                0.000000      0.000000      0.000000


--------------------------------------------------------------------------------------------------------



  FREE ENERGIE OF THE ION-ELECTRON SYSTEM (eV)
  ---------------------------------------------------
  free  energy   TOTEN  =       -11.02374149 eV

  energy  without entropy=      -11.02374149  energy(sigma->0) =      -11.02374149
 


--------------------------------------------------------------------------------------------------------


    POTLOK:  cpu time    0.0060: real time    0.0058


--------------------------------------------------------------------------------------------------------


 writing wavefunctions
     LOOP+:  cpu time    4.0534: real time    4.1735
    4ORBIT:  cpu time    0.0000: real time    0.0000

 total amount of memory used by VASP on root node    33097. kBytes
========================================================================

   base      :      30000. kBytes
   nonl-proj :       1846. kBytes
   fftplans  :        106. kBytes
   grid      :        144. kBytes
   one-center:          3. kBytes
   wavefun   :        998. kBytes
 
  
  
 General timing and accounting informations for this job:
 ========================================================
  
                  Total CPU time used (sec):        4.736
                            User time (sec):        4.444
                          System time (sec):        0.292
                         Elapsed time (sec):        5.307
  
                   Maximum memory used (kb):       37040.
                   Average memory used (kb):           0.
  
                          Minor page faults:         7427
                          Major page faults:            0
                 Voluntary context switches:        37671
